+ 0.4 1 0 ping 64 ------- 0 1.0 4.0 -1 0
- 0.4 1 0 ping 64 ------- 0 1.0 4.0 -1 0
r 0.410512 1 0 ping 64 ------- 0 1.0 4.0 -1 0
+ 0.410512 0 4 ping 64 ------- 0 1.0 4.0 -1 0
- 0.410512 0 4 ping 64 ------- 0 1.0 4.0 -1 0
r 0.421024 0 4 ping 64 ------- 0 1.0 4.0 -1 0
+ 0.421024 4 0 ping 64 ------- 0 4.0 1.0 -1 1
- 0.421024 4 0 ping 64 ------- 0 4.0 1.0 -1 1
r 0.431536 4 0 ping 64 ------- 0 4.0 1.0 -1 1
+ 0.431536 0 1 ping 64 ------- 0 4.0 1.0 -1 1
- 0.431536 0 1 ping 64 ------- 0 4.0 1.0 -1 1
r 0.442048 0 1 ping 64 ------- 0 4.0 1.0 -1 1
+ 0.6 2 0 ping 64 ------- 0 2.0 5.0 -1 2
- 0.6 2 0 ping 64 ------- 0 2.0 5.0 -1 2
r 0.610512 2 0 ping 64 ------- 0 2.0 5.0 -1 2
+ 0.610512 0 5 ping 64 ------- 0 2.0 5.0 -1 2
d 0.610512 0 5 ping 64 ------- 0 2.0 5.0 -1 2
+ 0.8 3 0 ping 64 ------- 0 3.0 6.0 -1 3
- 0.8 3 0 ping 64 ------- 0 3.0 6.0 -1 3
r 0.810512 3 0 ping 64 ------- 0 3.0 6.0 -1 3
+ 0.810512 0 6 ping 64 ------- 0 3.0 6.0 -1 3
d 0.810512 0 6 ping 64 ------- 0 3.0 6.0 -1 3
+ 1.2 4 0 ping 64 ------- 0 4.0 1.0 -1 4
- 1.2 4 0 ping 64 ------- 0 4.0 1.0 -1 4
r 1.210512 4 0 ping 64 ------- 0 4.0 1.0 -1 4
+ 1.210512 0 1 ping 64 ------- 0 4.0 1.0 -1 4
- 1.210512 0 1 ping 64 ------- 0 4.0 1.0 -1 4
r 1.221024 0 1 ping 64 ------- 0 4.0 1.0 -1 4
+ 1.221024 1 0 ping 64 ------- 0 1.0 4.0 -1 5
- 1.221024 1 0 ping 64 ------- 0 1.0 4.0 -1 5
r 1.231536 1 0 ping 64 ------- 0 1.0 4.0 -1 5
+ 1.231536 0 4 ping 64 ------- 0 1.0 4.0 -1 5
- 1.231536 0 4 ping 64 ------- 0 1.0 4.0 -1 5
r 1.242048 0 4 ping 64 ------- 0 1.0 4.0 -1 5
+ 1.4 5 0 ping 64 ------- 0 5.0 2.0 -1 6
- 1.4 5 0 ping 64 ------- 0 5.0 2.0 -1 6
r 1.410512 5 0 ping 64 ------- 0 5.0 2.0 -1 6
+ 1.410512 0 2 ping 64 ------- 0 5.0 2.0 -1 6
- 1.410512 0 2 ping 64 ------- 0 5.0 2.0 -1 6
r 1.421024 0 2 ping 64 ------- 0 5.0 2.0 -1 6
+ 1.421024 2 0 ping 64 ------- 0 2.0 5.0 -1 7
- 1.421024 2 0 ping 64 ------- 0 2.0 5.0 -1 7
r 1.431536 2 0 ping 64 ------- 0 2.0 5.0 -1 7
+ 1.431536 0 5 ping 64 ------- 0 2.0 5.0 -1 7
d 1.431536 0 5 ping 64 ------- 0 2.0 5.0 -1 7
+ 1.6 6 0 ping 64 ------- 0 6.0 3.0 -1 8
- 1.6 6 0 ping 64 ------- 0 6.0 3.0 -1 8
r 1.610512 6 0 ping 64 ------- 0 6.0 3.0 -1 8
+ 1.610512 0 3 ping 64 ------- 0 6.0 3.0 -1 8
- 1.610512 0 3 ping 64 ------- 0 6.0 3.0 -1 8
r 1.621024 0 3 ping 64 ------- 0 6.0 3.0 -1 8
+ 1.621024 3 0 ping 64 ------- 0 3.0 6.0 -1 9
- 1.621024 3 0 ping 64 ------- 0 3.0 6.0 -1 9
r 1.631536 3 0 ping 64 ------- 0 3.0 6.0 -1 9
+ 1.631536 0 6 ping 64 ------- 0 3.0 6.0 -1 9
d 1.631536 0 6 ping 64 ------- 0 3.0 6.0 -1 9
