+ 0.5 1 0 tcp 40 ------- 1 1.0 7.0 0 0
- 0.5 1 0 tcp 40 ------- 1 1.0 7.0 0 0
r 0.51016 1 0 tcp 40 ------- 1 1.0 7.0 0 0
+ 0.51016 0 3 tcp 40 ------- 1 1.0 7.0 0 0
- 0.51016 0 3 tcp 40 ------- 1 1.0 7.0 0 0
r 0.53048 0 3 tcp 40 ------- 1 1.0 7.0 0 0
h 0.53048 3 9 tcp 40 ------- 1 1.0 7.0 0 0
+ 0.57048 3 9 tcp 40 ------- 1 1.0 7.0 0 0
- 0.57048 3 9 tcp 40 ------- 1 1.0 7.0 0 0
r 0.611484 9 7 tcp 40 ------- 1 1.0 7.0 0 0
h 0.611484 7 9 ack 40 ------- 1 7.0 1.0 0 1
+ 0.651484 7 9 ack 40 ------- 1 7.0 1.0 0 1
- 0.651484 7 9 ack 40 ------- 1 7.0 1.0 0 1
r 0.692488 9 3 ack 40 ------- 1 7.0 1.0 0 1
+ 0.692488 3 0 ack 40 ------- 1 7.0 1.0 0 1
- 0.692488 3 0 ack 40 ------- 1 7.0 1.0 0 1
r 0.712808 3 0 ack 40 ------- 1 7.0 1.0 0 1
+ 0.712808 0 1 ack 40 ------- 1 7.0 1.0 0 1
- 0.712808 0 1 ack 40 ------- 1 7.0 1.0 0 1
r 0.722968 0 1 ack 40 ------- 1 7.0 1.0 0 1
+ 0.722968 1 0 tcp 95 ------- 1 1.0 7.0 1 2
- 0.722968 1 0 tcp 95 ------- 1 1.0 7.0 1 2
+ 0.722968 1 0 tcp 95 ------- 1 1.0 7.0 2 3
- 0.723348 1 0 tcp 95 ------- 1 1.0 7.0 2 3
r 0.733348 1 0 tcp 95 ------- 1 1.0 7.0 1 2
+ 0.733348 0 3 tcp 95 ------- 1 1.0 7.0 1 2
- 0.733348 0 3 tcp 95 ------- 1 1.0 7.0 1 2
r 0.733728 1 0 tcp 95 ------- 1 1.0 7.0 2 3
+ 0.733728 0 3 tcp 95 ------- 1 1.0 7.0 2 3
- 0.734108 0 3 tcp 95 ------- 1 1.0 7.0 2 3
r 0.754108 0 3 tcp 95 ------- 1 1.0 7.0 1 2
h 0.754108 3 9 tcp 95 ------- 1 1.0 7.0 1 2
r 0.754868 0 3 tcp 95 ------- 1 1.0 7.0 2 3
h 0.754868 3 9 tcp 95 ------- 1 1.0 7.0 2 3
+ 0.794108 3 9 tcp 95 ------- 1 1.0 7.0 1 2
- 0.794108 3 9 tcp 95 ------- 1 1.0 7.0 1 2
+ 0.794868 3 9 tcp 95 ------- 1 1.0 7.0 2 3
- 0.795999 3 9 tcp 95 ------- 1 1.0 7.0 2 3
r 0.835815 9 7 tcp 95 ------- 1 1.0 7.0 1 2
h 0.835815 7 9 ack 40 ------- 1 7.0 1.0 1 4
r 0.837706 9 7 tcp 95 ------- 1 1.0 7.0 2 3
h 0.837706 7 9 ack 40 ------- 1 7.0 1.0 2 5
+ 0.875815 7 9 ack 40 ------- 1 7.0 1.0 1 4
- 0.875815 7 9 ack 40 ------- 1 7.0 1.0 1 4
+ 0.877706 7 9 ack 40 ------- 1 7.0 1.0 2 5
- 0.877706 7 9 ack 40 ------- 1 7.0 1.0 2 5
r 0.916819 9 3 ack 40 ------- 1 7.0 1.0 1 4
+ 0.916819 3 0 ack 40 ------- 1 7.0 1.0 1 4
- 0.916819 3 0 ack 40 ------- 1 7.0 1.0 1 4
r 0.91871 9 3 ack 40 ------- 1 7.0 1.0 2 5
+ 0.91871 3 0 ack 40 ------- 1 7.0 1.0 2 5
- 0.91871 3 0 ack 40 ------- 1 7.0 1.0 2 5
r 0.937139 3 0 ack 40 ------- 1 7.0 1.0 1 4
+ 0.937139 0 1 ack 40 ------- 1 7.0 1.0 1 4
- 0.937139 0 1 ack 40 ------- 1 7.0 1.0 1 4
r 0.93903 3 0 ack 40 ------- 1 7.0 1.0 2 5
+ 0.93903 0 1 ack 40 ------- 1 7.0 1.0 2 5
- 0.93903 0 1 ack 40 ------- 1 7.0 1.0 2 5
r 0.947299 0 1 ack 40 ------- 1 7.0 1.0 1 4
+ 0.947299 1 0 tcp 95 ------- 1 1.0 7.0 3 6
- 0.947299 1 0 tcp 95 ------- 1 1.0 7.0 3 6
+ 0.947299 1 0 tcp 95 ------- 1 1.0 7.0 4 7
- 0.947679 1 0 tcp 95 ------- 1 1.0 7.0 4 7
r 0.94919 0 1 ack 40 ------- 1 7.0 1.0 2 5
+ 0.94919 1 0 tcp 95 ------- 1 1.0 7.0 5 8
- 0.94919 1 0 tcp 95 ------- 1 1.0 7.0 5 8
+ 0.94919 1 0 tcp 95 ------- 1 1.0 7.0 6 9
- 0.94957 1 0 tcp 95 ------- 1 1.0 7.0 6 9
r 0.957679 1 0 tcp 95 ------- 1 1.0 7.0 3 6
+ 0.957679 0 3 tcp 95 ------- 1 1.0 7.0 3 6
- 0.957679 0 3 tcp 95 ------- 1 1.0 7.0 3 6
r 0.958059 1 0 tcp 95 ------- 1 1.0 7.0 4 7
+ 0.958059 0 3 tcp 95 ------- 1 1.0 7.0 4 7
- 0.958439 0 3 tcp 95 ------- 1 1.0 7.0 4 7
r 0.95957 1 0 tcp 95 ------- 1 1.0 7.0 5 8
+ 0.95957 0 3 tcp 95 ------- 1 1.0 7.0 5 8
- 0.95957 0 3 tcp 95 ------- 1 1.0 7.0 5 8
r 0.95995 1 0 tcp 95 ------- 1 1.0 7.0 6 9
+ 0.95995 0 3 tcp 95 ------- 1 1.0 7.0 6 9
- 0.96033 0 3 tcp 95 ------- 1 1.0 7.0 6 9
r 0.978439 0 3 tcp 95 ------- 1 1.0 7.0 3 6
h 0.978439 3 9 tcp 95 ------- 1 1.0 7.0 3 6
r 0.979199 0 3 tcp 95 ------- 1 1.0 7.0 4 7
h 0.979199 3 9 tcp 95 ------- 1 1.0 7.0 4 7
r 0.98033 0 3 tcp 95 ------- 1 1.0 7.0 5 8
h 0.98033 3 9 tcp 95 ------- 1 1.0 7.0 5 8
r 0.98109 0 3 tcp 95 ------- 1 1.0 7.0 6 9
h 0.98109 3 9 tcp 95 ------- 1 1.0 7.0 6 9
+ 1 2 0 tcp 40 ------- 2 2.0 8.0 0 10
- 1 2 0 tcp 40 ------- 2 2.0 8.0 0 10
r 1.01016 2 0 tcp 40 ------- 2 2.0 8.0 0 10
+ 1.01016 0 3 tcp 40 ------- 2 2.0 8.0 0 10
- 1.01016 0 3 tcp 40 ------- 2 2.0 8.0 0 10
+ 1.018439 3 9 tcp 95 ------- 1 1.0 7.0 3 6
- 1.018439 3 9 tcp 95 ------- 1 1.0 7.0 3 6
+ 1.019199 3 9 tcp 95 ------- 1 1.0 7.0 4 7
+ 1.02033 3 9 tcp 95 ------- 1 1.0 7.0 5 8
- 1.02033 3 9 tcp 95 ------- 1 1.0 7.0 4 7
+ 1.02109 3 9 tcp 95 ------- 1 1.0 7.0 6 9
- 1.02222 3 9 tcp 95 ------- 1 1.0 7.0 5 8
- 1.024111 3 9 tcp 95 ------- 1 1.0 7.0 6 9
r 1.03048 0 3 tcp 40 ------- 2 2.0 8.0 0 10
h 1.03048 3 9 tcp 40 ------- 2 2.0 8.0 0 10
r 1.060146 9 7 tcp 95 ------- 1 1.0 7.0 3 6
h 1.060146 7 9 ack 40 ------- 1 7.0 1.0 3 11
r 1.062037 9 7 tcp 95 ------- 1 1.0 7.0 4 7
h 1.062037 7 9 ack 40 ------- 1 7.0 1.0 4 12
r 1.063928 9 7 tcp 95 ------- 1 1.0 7.0 5 8
h 1.063928 7 9 ack 40 ------- 1 7.0 1.0 5 13
r 1.065818 9 7 tcp 95 ------- 1 1.0 7.0 6 9
h 1.065818 7 9 ack 40 ------- 1 7.0 1.0 6 14
+ 1.07048 3 9 tcp 40 ------- 2 2.0 8.0 0 10
- 1.07048 3 9 tcp 40 ------- 2 2.0 8.0 0 10
+ 1.100146 7 9 ack 40 ------- 1 7.0 1.0 3 11
- 1.100146 7 9 ack 40 ------- 1 7.0 1.0 3 11
+ 1.102037 7 9 ack 40 ------- 1 7.0 1.0 4 12
- 1.102037 7 9 ack 40 ------- 1 7.0 1.0 4 12
+ 1.103928 7 9 ack 40 ------- 1 7.0 1.0 5 13
- 1.103928 7 9 ack 40 ------- 1 7.0 1.0 5 13
+ 1.105818 7 9 ack 40 ------- 1 7.0 1.0 6 14
- 1.105818 7 9 ack 40 ------- 1 7.0 1.0 6 14
r 1.111484 9 8 tcp 40 ------- 2 2.0 8.0 0 10
h 1.111484 8 9 ack 40 ------- 2 8.0 2.0 0 15
r 1.14115 9 3 ack 40 ------- 1 7.0 1.0 3 11
+ 1.14115 3 0 ack 40 ------- 1 7.0 1.0 3 11
- 1.14115 3 0 ack 40 ------- 1 7.0 1.0 3 11
r 1.143041 9 3 ack 40 ------- 1 7.0 1.0 4 12
+ 1.143041 3 0 ack 40 ------- 1 7.0 1.0 4 12
- 1.143041 3 0 ack 40 ------- 1 7.0 1.0 4 12
r 1.144931 9 3 ack 40 ------- 1 7.0 1.0 5 13
+ 1.144931 3 0 ack 40 ------- 1 7.0 1.0 5 13
- 1.144931 3 0 ack 40 ------- 1 7.0 1.0 5 13
r 1.146822 9 3 ack 40 ------- 1 7.0 1.0 6 14
+ 1.146822 3 0 ack 40 ------- 1 7.0 1.0 6 14
- 1.146822 3 0 ack 40 ------- 1 7.0 1.0 6 14
+ 1.151484 8 9 ack 40 ------- 2 8.0 2.0 0 15
- 1.151484 8 9 ack 40 ------- 2 8.0 2.0 0 15
r 1.16147 3 0 ack 40 ------- 1 7.0 1.0 3 11
+ 1.16147 0 1 ack 40 ------- 1 7.0 1.0 3 11
- 1.16147 0 1 ack 40 ------- 1 7.0 1.0 3 11
r 1.163361 3 0 ack 40 ------- 1 7.0 1.0 4 12
+ 1.163361 0 1 ack 40 ------- 1 7.0 1.0 4 12
- 1.163361 0 1 ack 40 ------- 1 7.0 1.0 4 12
r 1.165251 3 0 ack 40 ------- 1 7.0 1.0 5 13
+ 1.165251 0 1 ack 40 ------- 1 7.0 1.0 5 13
- 1.165251 0 1 ack 40 ------- 1 7.0 1.0 5 13
r 1.167142 3 0 ack 40 ------- 1 7.0 1.0 6 14
+ 1.167142 0 1 ack 40 ------- 1 7.0 1.0 6 14
- 1.167142 0 1 ack 40 ------- 1 7.0 1.0 6 14
r 1.17163 0 1 ack 40 ------- 1 7.0 1.0 3 11
+ 1.17163 1 0 tcp 95 ------- 1 1.0 7.0 7 16
- 1.17163 1 0 tcp 95 ------- 1 1.0 7.0 7 16
+ 1.17163 1 0 tcp 95 ------- 1 1.0 7.0 8 17
- 1.17201 1 0 tcp 95 ------- 1 1.0 7.0 8 17
r 1.173521 0 1 ack 40 ------- 1 7.0 1.0 4 12
+ 1.173521 1 0 tcp 95 ------- 1 1.0 7.0 9 18
- 1.173521 1 0 tcp 95 ------- 1 1.0 7.0 9 18
+ 1.173521 1 0 tcp 95 ------- 1 1.0 7.0 10 19
- 1.173901 1 0 tcp 95 ------- 1 1.0 7.0 10 19
r 1.175411 0 1 ack 40 ------- 1 7.0 1.0 5 13
+ 1.175411 1 0 tcp 95 ------- 1 1.0 7.0 11 20
- 1.175411 1 0 tcp 95 ------- 1 1.0 7.0 11 20
+ 1.175411 1 0 tcp 95 ------- 1 1.0 7.0 12 21
- 1.175791 1 0 tcp 95 ------- 1 1.0 7.0 12 21
r 1.177302 0 1 ack 40 ------- 1 7.0 1.0 6 14
+ 1.177302 1 0 tcp 95 ------- 1 1.0 7.0 13 22
- 1.177302 1 0 tcp 95 ------- 1 1.0 7.0 13 22
+ 1.177302 1 0 tcp 95 ------- 1 1.0 7.0 14 23
- 1.177682 1 0 tcp 95 ------- 1 1.0 7.0 14 23
r 1.18201 1 0 tcp 95 ------- 1 1.0 7.0 7 16
+ 1.18201 0 3 tcp 95 ------- 1 1.0 7.0 7 16
- 1.18201 0 3 tcp 95 ------- 1 1.0 7.0 7 16
r 1.18239 1 0 tcp 95 ------- 1 1.0 7.0 8 17
+ 1.18239 0 3 tcp 95 ------- 1 1.0 7.0 8 17
- 1.18277 0 3 tcp 95 ------- 1 1.0 7.0 8 17
r 1.183901 1 0 tcp 95 ------- 1 1.0 7.0 9 18
+ 1.183901 0 3 tcp 95 ------- 1 1.0 7.0 9 18
- 1.183901 0 3 tcp 95 ------- 1 1.0 7.0 9 18
r 1.184281 1 0 tcp 95 ------- 1 1.0 7.0 10 19
+ 1.184281 0 3 tcp 95 ------- 1 1.0 7.0 10 19
- 1.184661 0 3 tcp 95 ------- 1 1.0 7.0 10 19
r 1.185791 1 0 tcp 95 ------- 1 1.0 7.0 11 20
+ 1.185791 0 3 tcp 95 ------- 1 1.0 7.0 11 20
- 1.185791 0 3 tcp 95 ------- 1 1.0 7.0 11 20
r 1.186171 1 0 tcp 95 ------- 1 1.0 7.0 12 21
+ 1.186171 0 3 tcp 95 ------- 1 1.0 7.0 12 21
- 1.186551 0 3 tcp 95 ------- 1 1.0 7.0 12 21
r 1.187682 1 0 tcp 95 ------- 1 1.0 7.0 13 22
+ 1.187682 0 3 tcp 95 ------- 1 1.0 7.0 13 22
- 1.187682 0 3 tcp 95 ------- 1 1.0 7.0 13 22
r 1.188062 1 0 tcp 95 ------- 1 1.0 7.0 14 23
+ 1.188062 0 3 tcp 95 ------- 1 1.0 7.0 14 23
- 1.188442 0 3 tcp 95 ------- 1 1.0 7.0 14 23
r 1.192488 9 3 ack 40 ------- 2 8.0 2.0 0 15
+ 1.192488 3 0 ack 40 ------- 2 8.0 2.0 0 15
- 1.192488 3 0 ack 40 ------- 2 8.0 2.0 0 15
r 1.20277 0 3 tcp 95 ------- 1 1.0 7.0 7 16
h 1.20277 3 9 tcp 95 ------- 1 1.0 7.0 7 16
r 1.20353 0 3 tcp 95 ------- 1 1.0 7.0 8 17
h 1.20353 3 9 tcp 95 ------- 1 1.0 7.0 8 17
r 1.204661 0 3 tcp 95 ------- 1 1.0 7.0 9 18
h 1.204661 3 9 tcp 95 ------- 1 1.0 7.0 9 18
r 1.205421 0 3 tcp 95 ------- 1 1.0 7.0 10 19
h 1.205421 3 9 tcp 95 ------- 1 1.0 7.0 10 19
r 1.206551 0 3 tcp 95 ------- 1 1.0 7.0 11 20
h 1.206551 3 9 tcp 95 ------- 1 1.0 7.0 11 20
r 1.207311 0 3 tcp 95 ------- 1 1.0 7.0 12 21
h 1.207311 3 9 tcp 95 ------- 1 1.0 7.0 12 21
r 1.208442 0 3 tcp 95 ------- 1 1.0 7.0 13 22
h 1.208442 3 9 tcp 95 ------- 1 1.0 7.0 13 22
r 1.209202 0 3 tcp 95 ------- 1 1.0 7.0 14 23
h 1.209202 3 9 tcp 95 ------- 1 1.0 7.0 14 23
r 1.212808 3 0 ack 40 ------- 2 8.0 2.0 0 15
+ 1.212808 0 2 ack 40 ------- 2 8.0 2.0 0 15
- 1.212808 0 2 ack 40 ------- 2 8.0 2.0 0 15
r 1.222968 0 2 ack 40 ------- 2 8.0 2.0 0 15
+ 1.222968 2 0 tcp 95 ------- 2 2.0 8.0 1 24
- 1.222968 2 0 tcp 95 ------- 2 2.0 8.0 1 24
+ 1.222968 2 0 tcp 95 ------- 2 2.0 8.0 2 25
- 1.223348 2 0 tcp 95 ------- 2 2.0 8.0 2 25
r 1.233348 2 0 tcp 95 ------- 2 2.0 8.0 1 24
+ 1.233348 0 3 tcp 95 ------- 2 2.0 8.0 1 24
- 1.233348 0 3 tcp 95 ------- 2 2.0 8.0 1 24
r 1.233728 2 0 tcp 95 ------- 2 2.0 8.0 2 25
+ 1.233728 0 3 tcp 95 ------- 2 2.0 8.0 2 25
- 1.234108 0 3 tcp 95 ------- 2 2.0 8.0 2 25
+ 1.24277 3 9 tcp 95 ------- 1 1.0 7.0 7 16
- 1.24277 3 9 tcp 95 ------- 1 1.0 7.0 7 16
+ 1.24353 3 9 tcp 95 ------- 1 1.0 7.0 8 17
+ 1.244661 3 9 tcp 95 ------- 1 1.0 7.0 9 18
- 1.244661 3 9 tcp 95 ------- 1 1.0 7.0 8 17
+ 1.245421 3 9 tcp 95 ------- 1 1.0 7.0 10 19
+ 1.246551 3 9 tcp 95 ------- 1 1.0 7.0 11 20
- 1.246551 3 9 tcp 95 ------- 1 1.0 7.0 9 18
+ 1.247312 3 9 tcp 95 ------- 1 1.0 7.0 12 21
+ 1.248442 3 9 tcp 95 ------- 1 1.0 7.0 13 22
- 1.248442 3 9 tcp 95 ------- 1 1.0 7.0 10 19
+ 1.249202 3 9 tcp 95 ------- 1 1.0 7.0 14 23
- 1.250333 3 9 tcp 95 ------- 1 1.0 7.0 11 20
- 1.252223 3 9 tcp 95 ------- 1 1.0 7.0 12 21
r 1.254108 0 3 tcp 95 ------- 2 2.0 8.0 1 24
h 1.254108 3 9 tcp 95 ------- 2 2.0 8.0 1 24
- 1.254114 3 9 tcp 95 ------- 1 1.0 7.0 13 22
r 1.254868 0 3 tcp 95 ------- 2 2.0 8.0 2 25
h 1.254868 3 9 tcp 95 ------- 2 2.0 8.0 2 25
- 1.256005 3 9 tcp 95 ------- 1 1.0 7.0 14 23
r 1.284477 9 7 tcp 95 ------- 1 1.0 7.0 7 16
h 1.284477 7 9 ack 40 ------- 1 7.0 1.0 7 26
r 1.286368 9 7 tcp 95 ------- 1 1.0 7.0 8 17
h 1.286368 7 9 ack 40 ------- 1 7.0 1.0 8 27
r 1.288259 9 7 tcp 95 ------- 1 1.0 7.0 9 18
h 1.288259 7 9 ack 40 ------- 1 7.0 1.0 9 28
r 1.290149 9 7 tcp 95 ------- 1 1.0 7.0 10 19
h 1.290149 7 9 ack 40 ------- 1 7.0 1.0 10 29
r 1.29204 9 7 tcp 95 ------- 1 1.0 7.0 11 20
h 1.29204 7 9 ack 40 ------- 1 7.0 1.0 11 30
r 1.29393 9 7 tcp 95 ------- 1 1.0 7.0 12 21
h 1.29393 7 9 ack 40 ------- 1 7.0 1.0 12 31
+ 1.294108 3 9 tcp 95 ------- 2 2.0 8.0 1 24
- 1.294108 3 9 tcp 95 ------- 2 2.0 8.0 1 24
+ 1.294868 3 9 tcp 95 ------- 2 2.0 8.0 2 25
r 1.295821 9 7 tcp 95 ------- 1 1.0 7.0 13 22
h 1.295821 7 9 ack 40 ------- 1 7.0 1.0 13 32
- 1.295999 3 9 tcp 95 ------- 2 2.0 8.0 2 25
r 1.297712 9 7 tcp 95 ------- 1 1.0 7.0 14 23
h 1.297712 7 9 ack 40 ------- 1 7.0 1.0 14 33
+ 1.324477 7 9 ack 40 ------- 1 7.0 1.0 7 26
- 1.324477 7 9 ack 40 ------- 1 7.0 1.0 7 26
+ 1.326368 7 9 ack 40 ------- 1 7.0 1.0 8 27
- 1.326368 7 9 ack 40 ------- 1 7.0 1.0 8 27
+ 1.328259 7 9 ack 40 ------- 1 7.0 1.0 9 28
- 1.328259 7 9 ack 40 ------- 1 7.0 1.0 9 28
+ 1.330149 7 9 ack 40 ------- 1 7.0 1.0 10 29
- 1.330149 7 9 ack 40 ------- 1 7.0 1.0 10 29
+ 1.33204 7 9 ack 40 ------- 1 7.0 1.0 11 30
- 1.33204 7 9 ack 40 ------- 1 7.0 1.0 11 30
+ 1.33393 7 9 ack 40 ------- 1 7.0 1.0 12 31
- 1.33393 7 9 ack 40 ------- 1 7.0 1.0 12 31
r 1.335815 9 8 tcp 95 ------- 2 2.0 8.0 1 24
h 1.335815 8 9 ack 40 ------- 2 8.0 2.0 1 34
+ 1.335821 7 9 ack 40 ------- 1 7.0 1.0 13 32
- 1.335821 7 9 ack 40 ------- 1 7.0 1.0 13 32
r 1.337706 9 8 tcp 95 ------- 2 2.0 8.0 2 25
h 1.337706 8 9 ack 40 ------- 2 8.0 2.0 2 35
+ 1.337712 7 9 ack 40 ------- 1 7.0 1.0 14 33
- 1.337712 7 9 ack 40 ------- 1 7.0 1.0 14 33
r 1.365481 9 3 ack 40 ------- 1 7.0 1.0 7 26
+ 1.365481 3 0 ack 40 ------- 1 7.0 1.0 7 26
- 1.365481 3 0 ack 40 ------- 1 7.0 1.0 7 26
r 1.367372 9 3 ack 40 ------- 1 7.0 1.0 8 27
+ 1.367372 3 0 ack 40 ------- 1 7.0 1.0 8 27
- 1.367372 3 0 ack 40 ------- 1 7.0 1.0 8 27
r 1.369263 9 3 ack 40 ------- 1 7.0 1.0 9 28
+ 1.369263 3 0 ack 40 ------- 1 7.0 1.0 9 28
- 1.369263 3 0 ack 40 ------- 1 7.0 1.0 9 28
r 1.371153 9 3 ack 40 ------- 1 7.0 1.0 10 29
+ 1.371153 3 0 ack 40 ------- 1 7.0 1.0 10 29
- 1.371153 3 0 ack 40 ------- 1 7.0 1.0 10 29
r 1.373044 9 3 ack 40 ------- 1 7.0 1.0 11 30
+ 1.373044 3 0 ack 40 ------- 1 7.0 1.0 11 30
- 1.373044 3 0 ack 40 ------- 1 7.0 1.0 11 30
r 1.374934 9 3 ack 40 ------- 1 7.0 1.0 12 31
+ 1.374934 3 0 ack 40 ------- 1 7.0 1.0 12 31
- 1.374934 3 0 ack 40 ------- 1 7.0 1.0 12 31
+ 1.375815 8 9 ack 40 ------- 2 8.0 2.0 1 34
- 1.375815 8 9 ack 40 ------- 2 8.0 2.0 1 34
r 1.376825 9 3 ack 40 ------- 1 7.0 1.0 13 32
+ 1.376825 3 0 ack 40 ------- 1 7.0 1.0 13 32
- 1.376825 3 0 ack 40 ------- 1 7.0 1.0 13 32
+ 1.377706 8 9 ack 40 ------- 2 8.0 2.0 2 35
- 1.377706 8 9 ack 40 ------- 2 8.0 2.0 2 35
r 1.378716 9 3 ack 40 ------- 1 7.0 1.0 14 33
+ 1.378716 3 0 ack 40 ------- 1 7.0 1.0 14 33
- 1.378716 3 0 ack 40 ------- 1 7.0 1.0 14 33
r 1.385801 3 0 ack 40 ------- 1 7.0 1.0 7 26
+ 1.385801 0 1 ack 40 ------- 1 7.0 1.0 7 26
- 1.385801 0 1 ack 40 ------- 1 7.0 1.0 7 26
r 1.387692 3 0 ack 40 ------- 1 7.0 1.0 8 27
+ 1.387692 0 1 ack 40 ------- 1 7.0 1.0 8 27
- 1.387692 0 1 ack 40 ------- 1 7.0 1.0 8 27
r 1.389583 3 0 ack 40 ------- 1 7.0 1.0 9 28
+ 1.389583 0 1 ack 40 ------- 1 7.0 1.0 9 28
- 1.389583 0 1 ack 40 ------- 1 7.0 1.0 9 28
r 1.391473 3 0 ack 40 ------- 1 7.0 1.0 10 29
+ 1.391473 0 1 ack 40 ------- 1 7.0 1.0 10 29
- 1.391473 0 1 ack 40 ------- 1 7.0 1.0 10 29
r 1.393364 3 0 ack 40 ------- 1 7.0 1.0 11 30
+ 1.393364 0 1 ack 40 ------- 1 7.0 1.0 11 30
- 1.393364 0 1 ack 40 ------- 1 7.0 1.0 11 30
r 1.395254 3 0 ack 40 ------- 1 7.0 1.0 12 31
+ 1.395254 0 1 ack 40 ------- 1 7.0 1.0 12 31
- 1.395254 0 1 ack 40 ------- 1 7.0 1.0 12 31
r 1.395961 0 1 ack 40 ------- 1 7.0 1.0 7 26
+ 1.395961 1 0 tcp 95 ------- 1 1.0 7.0 15 36
- 1.395961 1 0 tcp 95 ------- 1 1.0 7.0 15 36
+ 1.395961 1 0 tcp 95 ------- 1 1.0 7.0 16 37
- 1.396341 1 0 tcp 95 ------- 1 1.0 7.0 16 37
r 1.397145 3 0 ack 40 ------- 1 7.0 1.0 13 32
+ 1.397145 0 1 ack 40 ------- 1 7.0 1.0 13 32
- 1.397145 0 1 ack 40 ------- 1 7.0 1.0 13 32
r 1.397852 0 1 ack 40 ------- 1 7.0 1.0 8 27
+ 1.397852 1 0 tcp 95 ------- 1 1.0 7.0 17 38
- 1.397852 1 0 tcp 95 ------- 1 1.0 7.0 17 38
+ 1.397852 1 0 tcp 95 ------- 1 1.0 7.0 18 39
- 1.398232 1 0 tcp 95 ------- 1 1.0 7.0 18 39
r 1.399036 3 0 ack 40 ------- 1 7.0 1.0 14 33
+ 1.399036 0 1 ack 40 ------- 1 7.0 1.0 14 33
- 1.399036 0 1 ack 40 ------- 1 7.0 1.0 14 33
r 1.399743 0 1 ack 40 ------- 1 7.0 1.0 9 28
+ 1.399743 1 0 tcp 95 ------- 1 1.0 7.0 19 40
- 1.399743 1 0 tcp 95 ------- 1 1.0 7.0 19 40
+ 1.399743 1 0 tcp 95 ------- 1 1.0 7.0 20 41
- 1.400123 1 0 tcp 95 ------- 1 1.0 7.0 20 41
r 1.401633 0 1 ack 40 ------- 1 7.0 1.0 10 29
+ 1.401633 1 0 tcp 95 ------- 1 1.0 7.0 21 42
- 1.401633 1 0 tcp 95 ------- 1 1.0 7.0 21 42
+ 1.401633 1 0 tcp 95 ------- 1 1.0 7.0 22 43
- 1.402013 1 0 tcp 95 ------- 1 1.0 7.0 22 43
r 1.403524 0 1 ack 40 ------- 1 7.0 1.0 11 30
+ 1.403524 1 0 tcp 95 ------- 1 1.0 7.0 23 44
- 1.403524 1 0 tcp 95 ------- 1 1.0 7.0 23 44
+ 1.403524 1 0 tcp 95 ------- 1 1.0 7.0 24 45
- 1.403904 1 0 tcp 95 ------- 1 1.0 7.0 24 45
r 1.405414 0 1 ack 40 ------- 1 7.0 1.0 12 31
+ 1.405414 1 0 tcp 95 ------- 1 1.0 7.0 25 46
- 1.405414 1 0 tcp 95 ------- 1 1.0 7.0 25 46
+ 1.405414 1 0 tcp 95 ------- 1 1.0 7.0 26 47
- 1.405794 1 0 tcp 95 ------- 1 1.0 7.0 26 47
r 1.406341 1 0 tcp 95 ------- 1 1.0 7.0 15 36
+ 1.406341 0 3 tcp 95 ------- 1 1.0 7.0 15 36
- 1.406341 0 3 tcp 95 ------- 1 1.0 7.0 15 36
r 1.406721 1 0 tcp 95 ------- 1 1.0 7.0 16 37
+ 1.406721 0 3 tcp 95 ------- 1 1.0 7.0 16 37
- 1.407101 0 3 tcp 95 ------- 1 1.0 7.0 16 37
r 1.407305 0 1 ack 40 ------- 1 7.0 1.0 13 32
+ 1.407305 1 0 tcp 95 ------- 1 1.0 7.0 27 48
- 1.407305 1 0 tcp 95 ------- 1 1.0 7.0 27 48
+ 1.407305 1 0 tcp 95 ------- 1 1.0 7.0 28 49
- 1.407685 1 0 tcp 95 ------- 1 1.0 7.0 28 49
r 1.408232 1 0 tcp 95 ------- 1 1.0 7.0 17 38
+ 1.408232 0 3 tcp 95 ------- 1 1.0 7.0 17 38
- 1.408232 0 3 tcp 95 ------- 1 1.0 7.0 17 38
r 1.408612 1 0 tcp 95 ------- 1 1.0 7.0 18 39
+ 1.408612 0 3 tcp 95 ------- 1 1.0 7.0 18 39
- 1.408992 0 3 tcp 95 ------- 1 1.0 7.0 18 39
r 1.409196 0 1 ack 40 ------- 1 7.0 1.0 14 33
+ 1.409196 1 0 tcp 95 ------- 1 1.0 7.0 29 50
- 1.409196 1 0 tcp 95 ------- 1 1.0 7.0 29 50
+ 1.409196 1 0 tcp 95 ------- 1 1.0 7.0 30 51
- 1.409576 1 0 tcp 95 ------- 1 1.0 7.0 30 51
r 1.410123 1 0 tcp 95 ------- 1 1.0 7.0 19 40
+ 1.410123 0 3 tcp 95 ------- 1 1.0 7.0 19 40
- 1.410123 0 3 tcp 95 ------- 1 1.0 7.0 19 40
r 1.410503 1 0 tcp 95 ------- 1 1.0 7.0 20 41
+ 1.410503 0 3 tcp 95 ------- 1 1.0 7.0 20 41
- 1.410883 0 3 tcp 95 ------- 1 1.0 7.0 20 41
r 1.412013 1 0 tcp 95 ------- 1 1.0 7.0 21 42
+ 1.412013 0 3 tcp 95 ------- 1 1.0 7.0 21 42
- 1.412013 0 3 tcp 95 ------- 1 1.0 7.0 21 42
r 1.412393 1 0 tcp 95 ------- 1 1.0 7.0 22 43
+ 1.412393 0 3 tcp 95 ------- 1 1.0 7.0 22 43
- 1.412773 0 3 tcp 95 ------- 1 1.0 7.0 22 43
r 1.413904 1 0 tcp 95 ------- 1 1.0 7.0 23 44
+ 1.413904 0 3 tcp 95 ------- 1 1.0 7.0 23 44
- 1.413904 0 3 tcp 95 ------- 1 1.0 7.0 23 44
r 1.414284 1 0 tcp 95 ------- 1 1.0 7.0 24 45
+ 1.414284 0 3 tcp 95 ------- 1 1.0 7.0 24 45
- 1.414664 0 3 tcp 95 ------- 1 1.0 7.0 24 45
r 1.415794 1 0 tcp 95 ------- 1 1.0 7.0 25 46
+ 1.415794 0 3 tcp 95 ------- 1 1.0 7.0 25 46
- 1.415794 0 3 tcp 95 ------- 1 1.0 7.0 25 46
r 1.416174 1 0 tcp 95 ------- 1 1.0 7.0 26 47
+ 1.416174 0 3 tcp 95 ------- 1 1.0 7.0 26 47
- 1.416554 0 3 tcp 95 ------- 1 1.0 7.0 26 47
r 1.416819 9 3 ack 40 ------- 2 8.0 2.0 1 34
+ 1.416819 3 0 ack 40 ------- 2 8.0 2.0 1 34
- 1.416819 3 0 ack 40 ------- 2 8.0 2.0 1 34
r 1.417685 1 0 tcp 95 ------- 1 1.0 7.0 27 48
+ 1.417685 0 3 tcp 95 ------- 1 1.0 7.0 27 48
- 1.417685 0 3 tcp 95 ------- 1 1.0 7.0 27 48
r 1.418065 1 0 tcp 95 ------- 1 1.0 7.0 28 49
+ 1.418065 0 3 tcp 95 ------- 1 1.0 7.0 28 49
- 1.418445 0 3 tcp 95 ------- 1 1.0 7.0 28 49
r 1.41871 9 3 ack 40 ------- 2 8.0 2.0 2 35
+ 1.41871 3 0 ack 40 ------- 2 8.0 2.0 2 35
- 1.41871 3 0 ack 40 ------- 2 8.0 2.0 2 35
r 1.419576 1 0 tcp 95 ------- 1 1.0 7.0 29 50
+ 1.419576 0 3 tcp 95 ------- 1 1.0 7.0 29 50
- 1.419576 0 3 tcp 95 ------- 1 1.0 7.0 29 50
r 1.419956 1 0 tcp 95 ------- 1 1.0 7.0 30 51
+ 1.419956 0 3 tcp 95 ------- 1 1.0 7.0 30 51
- 1.420336 0 3 tcp 95 ------- 1 1.0 7.0 30 51
r 1.427101 0 3 tcp 95 ------- 1 1.0 7.0 15 36
h 1.427101 3 9 tcp 95 ------- 1 1.0 7.0 15 36
r 1.427861 0 3 tcp 95 ------- 1 1.0 7.0 16 37
h 1.427861 3 9 tcp 95 ------- 1 1.0 7.0 16 37
r 1.428992 0 3 tcp 95 ------- 1 1.0 7.0 17 38
h 1.428992 3 9 tcp 95 ------- 1 1.0 7.0 17 38
r 1.429752 0 3 tcp 95 ------- 1 1.0 7.0 18 39
h 1.429752 3 9 tcp 95 ------- 1 1.0 7.0 18 39
r 1.430883 0 3 tcp 95 ------- 1 1.0 7.0 19 40
h 1.430883 3 9 tcp 95 ------- 1 1.0 7.0 19 40
r 1.431643 0 3 tcp 95 ------- 1 1.0 7.0 20 41
h 1.431643 3 9 tcp 95 ------- 1 1.0 7.0 20 41
r 1.432773 0 3 tcp 95 ------- 1 1.0 7.0 21 42
h 1.432773 3 9 tcp 95 ------- 1 1.0 7.0 21 42
r 1.433533 0 3 tcp 95 ------- 1 1.0 7.0 22 43
h 1.433533 3 9 tcp 95 ------- 1 1.0 7.0 22 43
r 1.434664 0 3 tcp 95 ------- 1 1.0 7.0 23 44
h 1.434664 3 9 tcp 95 ------- 1 1.0 7.0 23 44
r 1.435424 0 3 tcp 95 ------- 1 1.0 7.0 24 45
h 1.435424 3 9 tcp 95 ------- 1 1.0 7.0 24 45
r 1.436554 0 3 tcp 95 ------- 1 1.0 7.0 25 46
h 1.436554 3 9 tcp 95 ------- 1 1.0 7.0 25 46
r 1.437139 3 0 ack 40 ------- 2 8.0 2.0 1 34
+ 1.437139 0 2 ack 40 ------- 2 8.0 2.0 1 34
- 1.437139 0 2 ack 40 ------- 2 8.0 2.0 1 34
r 1.437314 0 3 tcp 95 ------- 1 1.0 7.0 26 47
h 1.437314 3 9 tcp 95 ------- 1 1.0 7.0 26 47
r 1.438445 0 3 tcp 95 ------- 1 1.0 7.0 27 48
h 1.438445 3 9 tcp 95 ------- 1 1.0 7.0 27 48
r 1.43903 3 0 ack 40 ------- 2 8.0 2.0 2 35
+ 1.43903 0 2 ack 40 ------- 2 8.0 2.0 2 35
- 1.43903 0 2 ack 40 ------- 2 8.0 2.0 2 35
r 1.439205 0 3 tcp 95 ------- 1 1.0 7.0 28 49
h 1.439205 3 9 tcp 95 ------- 1 1.0 7.0 28 49
r 1.440336 0 3 tcp 95 ------- 1 1.0 7.0 29 50
h 1.440336 3 9 tcp 95 ------- 1 1.0 7.0 29 50
r 1.441096 0 3 tcp 95 ------- 1 1.0 7.0 30 51
h 1.441096 3 9 tcp 95 ------- 1 1.0 7.0 30 51
r 1.447299 0 2 ack 40 ------- 2 8.0 2.0 1 34
+ 1.447299 2 0 tcp 95 ------- 2 2.0 8.0 3 52
- 1.447299 2 0 tcp 95 ------- 2 2.0 8.0 3 52
+ 1.447299 2 0 tcp 95 ------- 2 2.0 8.0 4 53
- 1.447679 2 0 tcp 95 ------- 2 2.0 8.0 4 53
r 1.44919 0 2 ack 40 ------- 2 8.0 2.0 2 35
+ 1.44919 2 0 tcp 95 ------- 2 2.0 8.0 5 54
- 1.44919 2 0 tcp 95 ------- 2 2.0 8.0 5 54
+ 1.44919 2 0 tcp 95 ------- 2 2.0 8.0 6 55
- 1.44957 2 0 tcp 95 ------- 2 2.0 8.0 6 55
r 1.457679 2 0 tcp 95 ------- 2 2.0 8.0 3 52
+ 1.457679 0 3 tcp 95 ------- 2 2.0 8.0 3 52
- 1.457679 0 3 tcp 95 ------- 2 2.0 8.0 3 52
r 1.458059 2 0 tcp 95 ------- 2 2.0 8.0 4 53
+ 1.458059 0 3 tcp 95 ------- 2 2.0 8.0 4 53
- 1.458439 0 3 tcp 95 ------- 2 2.0 8.0 4 53
r 1.45957 2 0 tcp 95 ------- 2 2.0 8.0 5 54
+ 1.45957 0 3 tcp 95 ------- 2 2.0 8.0 5 54
- 1.45957 0 3 tcp 95 ------- 2 2.0 8.0 5 54
r 1.45995 2 0 tcp 95 ------- 2 2.0 8.0 6 55
+ 1.45995 0 3 tcp 95 ------- 2 2.0 8.0 6 55
- 1.46033 0 3 tcp 95 ------- 2 2.0 8.0 6 55
+ 1.467101 3 9 tcp 95 ------- 1 1.0 7.0 15 36
- 1.467101 3 9 tcp 95 ------- 1 1.0 7.0 15 36
+ 1.467861 3 9 tcp 95 ------- 1 1.0 7.0 16 37
- 1.468992 3 9 tcp 95 ------- 1 1.0 7.0 16 37
+ 1.468992 3 9 tcp 95 ------- 1 1.0 7.0 17 38
+ 1.469752 3 9 tcp 95 ------- 1 1.0 7.0 18 39
+ 1.470883 3 9 tcp 95 ------- 1 1.0 7.0 19 40
- 1.470883 3 9 tcp 95 ------- 1 1.0 7.0 17 38
+ 1.471643 3 9 tcp 95 ------- 1 1.0 7.0 20 41
- 1.472773 3 9 tcp 95 ------- 1 1.0 7.0 18 39
+ 1.472773 3 9 tcp 95 ------- 1 1.0 7.0 21 42
+ 1.473533 3 9 tcp 95 ------- 1 1.0 7.0 22 43
+ 1.474664 3 9 tcp 95 ------- 1 1.0 7.0 23 44
- 1.474664 3 9 tcp 95 ------- 1 1.0 7.0 19 40
+ 1.475424 3 9 tcp 95 ------- 1 1.0 7.0 24 45
- 1.476554 3 9 tcp 95 ------- 1 1.0 7.0 20 41
+ 1.476554 3 9 tcp 95 ------- 1 1.0 7.0 25 46
+ 1.477314 3 9 tcp 95 ------- 1 1.0 7.0 26 47
r 1.478439 0 3 tcp 95 ------- 2 2.0 8.0 3 52
h 1.478439 3 9 tcp 95 ------- 2 2.0 8.0 3 52
+ 1.478445 3 9 tcp 95 ------- 1 1.0 7.0 27 48
- 1.478445 3 9 tcp 95 ------- 1 1.0 7.0 21 42
r 1.479199 0 3 tcp 95 ------- 2 2.0 8.0 4 53
h 1.479199 3 9 tcp 95 ------- 2 2.0 8.0 4 53
+ 1.479205 3 9 tcp 95 ------- 1 1.0 7.0 28 49
r 1.48033 0 3 tcp 95 ------- 2 2.0 8.0 5 54
h 1.48033 3 9 tcp 95 ------- 2 2.0 8.0 5 54
- 1.480336 3 9 tcp 95 ------- 1 1.0 7.0 22 43
+ 1.480336 3 9 tcp 95 ------- 1 1.0 7.0 29 50
r 1.48109 0 3 tcp 95 ------- 2 2.0 8.0 6 55
h 1.48109 3 9 tcp 95 ------- 2 2.0 8.0 6 55
+ 1.481096 3 9 tcp 95 ------- 1 1.0 7.0 30 51
- 1.482226 3 9 tcp 95 ------- 1 1.0 7.0 23 44
- 1.484117 3 9 tcp 95 ------- 1 1.0 7.0 24 45
- 1.486008 3 9 tcp 95 ------- 1 1.0 7.0 25 46
- 1.487898 3 9 tcp 95 ------- 1 1.0 7.0 26 47
- 1.489789 3 9 tcp 95 ------- 1 1.0 7.0 27 48
- 1.491679 3 9 tcp 95 ------- 1 1.0 7.0 28 49
- 1.49357 3 9 tcp 95 ------- 1 1.0 7.0 29 50
- 1.495461 3 9 tcp 95 ------- 1 1.0 7.0 30 51
r 1.508808 9 7 tcp 95 ------- 1 1.0 7.0 15 36
h 1.508808 7 9 ack 40 ------- 1 7.0 1.0 15 56
r 1.510699 9 7 tcp 95 ------- 1 1.0 7.0 16 37
h 1.510699 7 9 ack 40 ------- 1 7.0 1.0 16 57
r 1.51259 9 7 tcp 95 ------- 1 1.0 7.0 17 38
h 1.51259 7 9 ack 40 ------- 1 7.0 1.0 17 58
r 1.51448 9 7 tcp 95 ------- 1 1.0 7.0 18 39
h 1.51448 7 9 ack 40 ------- 1 7.0 1.0 18 59
r 1.516371 9 7 tcp 95 ------- 1 1.0 7.0 19 40
h 1.516371 7 9 ack 40 ------- 1 7.0 1.0 19 60
r 1.518262 9 7 tcp 95 ------- 1 1.0 7.0 20 41
h 1.518262 7 9 ack 40 ------- 1 7.0 1.0 20 61
+ 1.518439 3 9 tcp 95 ------- 2 2.0 8.0 3 52
- 1.518439 3 9 tcp 95 ------- 2 2.0 8.0 3 52
+ 1.519199 3 9 tcp 95 ------- 2 2.0 8.0 4 53
r 1.520152 9 7 tcp 95 ------- 1 1.0 7.0 21 42
h 1.520152 7 9 ack 40 ------- 1 7.0 1.0 21 62
- 1.52033 3 9 tcp 95 ------- 2 2.0 8.0 4 53
+ 1.52033 3 9 tcp 95 ------- 2 2.0 8.0 5 54
+ 1.52109 3 9 tcp 95 ------- 2 2.0 8.0 6 55
r 1.522043 9 7 tcp 95 ------- 1 1.0 7.0 22 43
h 1.522043 7 9 ack 40 ------- 1 7.0 1.0 22 63
- 1.52222 3 9 tcp 95 ------- 2 2.0 8.0 5 54
r 1.523933 9 7 tcp 95 ------- 1 1.0 7.0 23 44
h 1.523933 7 9 ack 40 ------- 1 7.0 1.0 23 64
- 1.524111 3 9 tcp 95 ------- 2 2.0 8.0 6 55
r 1.525824 9 7 tcp 95 ------- 1 1.0 7.0 24 45
h 1.525824 7 9 ack 40 ------- 1 7.0 1.0 24 65
r 1.527715 9 7 tcp 95 ------- 1 1.0 7.0 25 46
h 1.527715 7 9 ack 40 ------- 1 7.0 1.0 25 66
r 1.529605 9 7 tcp 95 ------- 1 1.0 7.0 26 47
h 1.529605 7 9 ack 40 ------- 1 7.0 1.0 26 67
r 1.531496 9 7 tcp 95 ------- 1 1.0 7.0 27 48
h 1.531496 7 9 ack 40 ------- 1 7.0 1.0 27 68
r 1.533387 9 7 tcp 95 ------- 1 1.0 7.0 28 49
h 1.533387 7 9 ack 40 ------- 1 7.0 1.0 28 69
r 1.535277 9 7 tcp 95 ------- 1 1.0 7.0 29 50
h 1.535277 7 9 ack 40 ------- 1 7.0 1.0 29 70
r 1.537168 9 7 tcp 95 ------- 1 1.0 7.0 30 51
h 1.537168 7 9 ack 40 ------- 1 7.0 1.0 30 71
+ 1.548808 7 9 ack 40 ------- 1 7.0 1.0 15 56
- 1.548808 7 9 ack 40 ------- 1 7.0 1.0 15 56
+ 1.550699 7 9 ack 40 ------- 1 7.0 1.0 16 57
- 1.550699 7 9 ack 40 ------- 1 7.0 1.0 16 57
+ 1.55259 7 9 ack 40 ------- 1 7.0 1.0 17 58
- 1.55259 7 9 ack 40 ------- 1 7.0 1.0 17 58
+ 1.55448 7 9 ack 40 ------- 1 7.0 1.0 18 59
- 1.55448 7 9 ack 40 ------- 1 7.0 1.0 18 59
+ 1.556371 7 9 ack 40 ------- 1 7.0 1.0 19 60
- 1.556371 7 9 ack 40 ------- 1 7.0 1.0 19 60
+ 1.558262 7 9 ack 40 ------- 1 7.0 1.0 20 61
- 1.558262 7 9 ack 40 ------- 1 7.0 1.0 20 61
r 1.560146 9 8 tcp 95 ------- 2 2.0 8.0 3 52
h 1.560146 8 9 ack 40 ------- 2 8.0 2.0 3 72
+ 1.560152 7 9 ack 40 ------- 1 7.0 1.0 21 62
- 1.560152 7 9 ack 40 ------- 1 7.0 1.0 21 62
r 1.562037 9 8 tcp 95 ------- 2 2.0 8.0 4 53
h 1.562037 8 9 ack 40 ------- 2 8.0 2.0 4 73
+ 1.562043 7 9 ack 40 ------- 1 7.0 1.0 22 63
- 1.562043 7 9 ack 40 ------- 1 7.0 1.0 22 63
r 1.563927 9 8 tcp 95 ------- 2 2.0 8.0 5 54
h 1.563927 8 9 ack 40 ------- 2 8.0 2.0 5 74
+ 1.563933 7 9 ack 40 ------- 1 7.0 1.0 23 64
- 1.563933 7 9 ack 40 ------- 1 7.0 1.0 23 64
r 1.565818 9 8 tcp 95 ------- 2 2.0 8.0 6 55
h 1.565818 8 9 ack 40 ------- 2 8.0 2.0 6 75
+ 1.565824 7 9 ack 40 ------- 1 7.0 1.0 24 65
- 1.565824 7 9 ack 40 ------- 1 7.0 1.0 24 65
+ 1.567715 7 9 ack 40 ------- 1 7.0 1.0 25 66
- 1.567715 7 9 ack 40 ------- 1 7.0 1.0 25 66
+ 1.569605 7 9 ack 40 ------- 1 7.0 1.0 26 67
- 1.569605 7 9 ack 40 ------- 1 7.0 1.0 26 67
+ 1.571496 7 9 ack 40 ------- 1 7.0 1.0 27 68
- 1.571496 7 9 ack 40 ------- 1 7.0 1.0 27 68
+ 1.573387 7 9 ack 40 ------- 1 7.0 1.0 28 69
- 1.573387 7 9 ack 40 ------- 1 7.0 1.0 28 69
+ 1.575277 7 9 ack 40 ------- 1 7.0 1.0 29 70
- 1.575277 7 9 ack 40 ------- 1 7.0 1.0 29 70
+ 1.577168 7 9 ack 40 ------- 1 7.0 1.0 30 71
- 1.577168 7 9 ack 40 ------- 1 7.0 1.0 30 71
r 1.589812 9 3 ack 40 ------- 1 7.0 1.0 15 56
+ 1.589812 3 0 ack 40 ------- 1 7.0 1.0 15 56
- 1.589812 3 0 ack 40 ------- 1 7.0 1.0 15 56
r 1.591703 9 3 ack 40 ------- 1 7.0 1.0 16 57
+ 1.591703 3 0 ack 40 ------- 1 7.0 1.0 16 57
- 1.591703 3 0 ack 40 ------- 1 7.0 1.0 16 57
r 1.593594 9 3 ack 40 ------- 1 7.0 1.0 17 58
+ 1.593594 3 0 ack 40 ------- 1 7.0 1.0 17 58
- 1.593594 3 0 ack 40 ------- 1 7.0 1.0 17 58
r 1.595484 9 3 ack 40 ------- 1 7.0 1.0 18 59
+ 1.595484 3 0 ack 40 ------- 1 7.0 1.0 18 59
- 1.595484 3 0 ack 40 ------- 1 7.0 1.0 18 59
r 1.597375 9 3 ack 40 ------- 1 7.0 1.0 19 60
+ 1.597375 3 0 ack 40 ------- 1 7.0 1.0 19 60
- 1.597375 3 0 ack 40 ------- 1 7.0 1.0 19 60
r 1.599266 9 3 ack 40 ------- 1 7.0 1.0 20 61
+ 1.599266 3 0 ack 40 ------- 1 7.0 1.0 20 61
- 1.599266 3 0 ack 40 ------- 1 7.0 1.0 20 61
+ 1.600146 8 9 ack 40 ------- 2 8.0 2.0 3 72
- 1.600146 8 9 ack 40 ------- 2 8.0 2.0 3 72
r 1.601156 9 3 ack 40 ------- 1 7.0 1.0 21 62
+ 1.601156 3 0 ack 40 ------- 1 7.0 1.0 21 62
- 1.601156 3 0 ack 40 ------- 1 7.0 1.0 21 62
+ 1.602037 8 9 ack 40 ------- 2 8.0 2.0 4 73
- 1.602037 8 9 ack 40 ------- 2 8.0 2.0 4 73
r 1.603047 9 3 ack 40 ------- 1 7.0 1.0 22 63
+ 1.603047 3 0 ack 40 ------- 1 7.0 1.0 22 63
- 1.603047 3 0 ack 40 ------- 1 7.0 1.0 22 63
+ 1.603927 8 9 ack 40 ------- 2 8.0 2.0 5 74
- 1.603927 8 9 ack 40 ------- 2 8.0 2.0 5 74
r 1.604937 9 3 ack 40 ------- 1 7.0 1.0 23 64
+ 1.604937 3 0 ack 40 ------- 1 7.0 1.0 23 64
- 1.604937 3 0 ack 40 ------- 1 7.0 1.0 23 64
+ 1.605818 8 9 ack 40 ------- 2 8.0 2.0 6 75
- 1.605818 8 9 ack 40 ------- 2 8.0 2.0 6 75
r 1.606828 9 3 ack 40 ------- 1 7.0 1.0 24 65
+ 1.606828 3 0 ack 40 ------- 1 7.0 1.0 24 65
- 1.606828 3 0 ack 40 ------- 1 7.0 1.0 24 65
r 1.608719 9 3 ack 40 ------- 1 7.0 1.0 25 66
+ 1.608719 3 0 ack 40 ------- 1 7.0 1.0 25 66
- 1.608719 3 0 ack 40 ------- 1 7.0 1.0 25 66
r 1.610132 3 0 ack 40 ------- 1 7.0 1.0 15 56
+ 1.610132 0 1 ack 40 ------- 1 7.0 1.0 15 56
- 1.610132 0 1 ack 40 ------- 1 7.0 1.0 15 56
r 1.610609 9 3 ack 40 ------- 1 7.0 1.0 26 67
+ 1.610609 3 0 ack 40 ------- 1 7.0 1.0 26 67
- 1.610609 3 0 ack 40 ------- 1 7.0 1.0 26 67
r 1.612023 3 0 ack 40 ------- 1 7.0 1.0 16 57
+ 1.612023 0 1 ack 40 ------- 1 7.0 1.0 16 57
- 1.612023 0 1 ack 40 ------- 1 7.0 1.0 16 57
r 1.6125 9 3 ack 40 ------- 1 7.0 1.0 27 68
+ 1.6125 3 0 ack 40 ------- 1 7.0 1.0 27 68