V -t * -v 1.0a5 -a 0
A -t * -n 1 -p 0 -o 0x7fffffff -c 30 -a 1
A -t * -h 1 -m 1073741823 -s 0
c -t * -i 1 -n Blue
c -t * -i 2 -n Red
n -t * -a 8 -s 8 -S UP -v hexagon -c Red -i Red
n -t * -a 4 -s 4 -S UP -v circle -c black -i black
n -t * -a 0 -s 0 -S UP -v circle -c black -i black
n -t * -a 5 -s 5 -S UP -v circle -c black -i black
n -t * -a 1 -s 1 -S UP -v circle -c black -i black
n -t * -a 6 -s 6 -S UP -v circle -c black -i black
n -t * -a 2 -s 2 -S UP -v circle -c black -i black
n -t * -a 7 -s 7 -S UP -v box -c Blue -i Blue
n -t * -a 3 -s 3 -S UP -v circle -c black -i black
l -t * -s 1 -d 0 -S UP -r 2000000 -D 0.01 -c black -o right-down
l -t * -s 2 -d 0 -S UP -r 2000000 -D 0.01 -c black -o right-up
l -t * -s 0 -d 3 -S UP -r 1000000 -D 0.02 -c black -o right
X -t * -n 9 -r 512Kb -D 40ms -o left
L -t * -s 9 -d 3 -o up
L -t * -s 9 -d 4 -o down
L -t * -s 9 -d 5 -o up
L -t * -s 9 -d 6 -o down
L -t * -s 9 -d 7 -o up
L -t * -s 9 -d 8 -o down
+ -t 0.5 -s 1 -d 0 -p tcp -e 40 -c 1 -i 0 -a 1 -x {1.0 7.0 0 ------- null}
- -t 0.5 -s 1 -d 0 -p tcp -e 40 -c 1 -i 0 -a 1 -x {1.0 7.0 0 ------- null}
h -t 0.5 -s 1 -d 0 -p tcp -e 40 -c 1 -i 0 -a 1 -x {1.0 7.0 -1 ------- null}
r -t 0.51016 -s 1 -d 0 -p tcp -e 40 -c 1 -i 0 -a 1 -x {1.0 7.0 0 ------- null}
+ -t 0.51016 -s 0 -d 3 -p tcp -e 40 -c 1 -i 0 -a 1 -x {1.0 7.0 0 ------- null}
- -t 0.51016 -s 0 -d 3 -p tcp -e 40 -c 1 -i 0 -a 1 -x {1.0 7.0 0 ------- null}
h -t 0.51016 -s 0 -d 3 -p tcp -e 40 -c 1 -i 0 -a 1 -x {1.0 7.0 -1 ------- null}
r -t 0.53048 -s 0 -d 3 -p tcp -e 40 -c 1 -i 0 -a 1 -x {1.0 7.0 0 ------- null}
h -t 0.53048 -s 3 -d 9 -p tcp -e 40 -c 1 -i 0 -a 1 -x {1.0 7.0 0 ------- null}
+ -t 0.57048 -s 3 -d 9 -p tcp -e 40 -c 1 -i 0 -a 1 -x {1.0 7.0 0 ------- null}
- -t 0.57048 -s 3 -d 9 -p tcp -e 40 -c 1 -i 0 -a 1 -x {1.0 7.0 0 ------- null}
h -t 0.57048 -s 3 -d 9 -p tcp -e 40 -c 1 -i 0 -a 1 -x {1.0 7.0 -1 ------- null}
r -t 0.611484 -s 9 -d 7 -p tcp -e 40 -c 1 -i 0 -a 1 -x {1.0 7.0 0 ------- null}
h -t 0.611484 -s 7 -d 9 -p ack -e 40 -c 1 -i 1 -a 1 -x {7.0 1.0 0 ------- null}
+ -t 0.651484 -s 7 -d 9 -p ack -e 40 -c 1 -i 1 -a 1 -x {7.0 1.0 0 ------- null}
- -t 0.651484 -s 7 -d 9 -p ack -e 40 -c 1 -i 1 -a 1 -x {7.0 1.0 0 ------- null}
h -t 0.651484 -s 7 -d 9 -p ack -e 40 -c 1 -i 1 -a 1 -x {7.0 1.0 -1 ------- null}
r -t 0.692488 -s 9 -d 3 -p ack -e 40 -c 1 -i 1 -a 1 -x {7.0 1.0 0 ------- null}
+ -t 0.692488 -s 3 -d 0 -p ack -e 40 -c 1 -i 1 -a 1 -x {7.0 1.0 0 ------- null}
- -t 0.692488 -s 3 -d 0 -p ack -e 40 -c 1 -i 1 -a 1 -x {7.0 1.0 0 ------- null}
h -t 0.692488 -s 3 -d 0 -p ack -e 40 -c 1 -i 1 -a 1 -x {7.0 1.0 -1 ------- null}
r -t 0.712808 -s 3 -d 0 -p ack -e 40 -c 1 -i 1 -a 1 -x {7.0 1.0 0 ------- null}
+ -t 0.712808 -s 0 -d 1 -p ack -e 40 -c 1 -i 1 -a 1 -x {7.0 1.0 0 ------- null}
- -t 0.712808 -s 0 -d 1 -p ack -e 40 -c 1 -i 1 -a 1 -x {7.0 1.0 0 ------- null}
h -t 0.712808 -s 0 -d 1 -p ack -e 40 -c 1 -i 1 -a 1 -x {7.0 1.0 -1 ------- null}
r -t 0.722968 -s 0 -d 1 -p ack -e 40 -c 1 -i 1 -a 1 -x {7.0 1.0 0 ------- null}
+ -t 0.722968 -s 1 -d 0 -p tcp -e 95 -c 1 -i 2 -a 1 -x {1.0 7.0 1 ------- null}
- -t 0.722968 -s 1 -d 0 -p tcp -e 95 -c 1 -i 2 -a 1 -x {1.0 7.0 1 ------- null}
h -t 0.722968 -s 1 -d 0 -p tcp -e 95 -c 1 -i 2 -a 1 -x {1.0 7.0 -1 ------- null}
+ -t 0.722968 -s 1 -d 0 -p tcp -e 95 -c 1 -i 3 -a 1 -x {1.0 7.0 2 ------- null}
- -t 0.723348 -s 1 -d 0 -p tcp -e 95 -c 1 -i 3 -a 1 -x {1.0 7.0 2 ------- null}
h -t 0.723348 -s 1 -d 0 -p tcp -e 95 -c 1 -i 3 -a 1 -x {1.0 7.0 -1 ------- null}
r -t 0.733348 -s 1 -d 0 -p tcp -e 95 -c 1 -i 2 -a 1 -x {1.0 7.0 1 ------- null}
+ -t 0.733348 -s 0 -d 3 -p tcp -e 95 -c 1 -i 2 -a 1 -x {1.0 7.0 1 ------- null}
- -t 0.733348 -s 0 -d 3 -p tcp -e 95 -c 1 -i 2 -a 1 -x {1.0 7.0 1 ------- null}
h -t 0.733348 -s 0 -d 3 -p tcp -e 95 -c 1 -i 2 -a 1 -x {1.0 7.0 -1 ------- null}
r -t 0.733728 -s 1 -d 0 -p tcp -e 95 -c 1 -i 3 -a 1 -x {1.0 7.0 2 ------- null}
+ -t 0.733728 -s 0 -d 3 -p tcp -e 95 -c 1 -i 3 -a 1 -x {1.0 7.0 2 ------- null}
- -t 0.734108 -s 0 -d 3 -p tcp -e 95 -c 1 -i 3 -a 1 -x {1.0 7.0 2 ------- null}
h -t 0.734108 -s 0 -d 3 -p tcp -e 95 -c 1 -i 3 -a 1 -x {1.0 7.0 -1 ------- null}
r -t 0.754108 -s 0 -d 3 -p tcp -e 95 -c 1 -i 2 -a 1 -x {1.0 7.0 1 ------- null}
h -t 0.754108 -s 3 -d 9 -p tcp -e 95 -c 1 -i 2 -a 1 -x {1.0 7.0 1 ------- null}
r -t 0.754868 -s 0 -d 3 -p tcp -e 95 -c 1 -i 3 -a 1 -x {1.0 7.0 2 ------- null}
h -t 0.754868 -s 3 -d 9 -p tcp -e 95 -c 1 -i 3 -a 1 -x {1.0 7.0 2 ------- null}
+ -t 0.794108 -s 3 -d 9 -p tcp -e 95 -c 1 -i 2 -a 1 -x {1.0 7.0 1 ------- null}
- -t 0.794108 -s 3 -d 9 -p tcp -e 95 -c 1 -i 2 -a 1 -x {1.0 7.0 1 ------- null}
h -t 0.794108 -s 3 -d 9 -p tcp -e 95 -c 1 -i 2 -a 1 -x {1.0 7.0 -1 ------- null}
+ -t 0.794868 -s 3 -d 9 -p tcp -e 95 -c 1 -i 3 -a 1 -x {1.0 7.0 2 ------- null}
- -t 0.795998625 -s 3 -d 9 -p tcp -e 95 -c 1 -i 3 -a 1 -x {1.0 7.0 2 ------- null}
h -t 0.795998625 -s 3 -d 9 -p tcp -e 95 -c 1 -i 3 -a 1 -x {1.0 7.0 -1 ------- null}
r -t 0.835815125 -s 9 -d 7 -p tcp -e 95 -c 1 -i 2 -a 1 -x {1.0 7.0 1 ------- null}
h -t 0.835815125 -s 7 -d 9 -p ack -e 40 -c 1 -i 4 -a 1 -x {7.0 1.0 1 ------- null}
r -t 0.83770575 -s 9 -d 7 -p tcp -e 95 -c 1 -i 3 -a 1 -x {1.0 7.0 2 ------- null}
h -t 0.83770575 -s 7 -d 9 -p ack -e 40 -c 1 -i 5 -a 1 -x {7.0 1.0 2 ------- null}
+ -t 0.875815125 -s 7 -d 9 -p ack -e 40 -c 1 -i 4 -a 1 -x {7.0 1.0 1 ------- null}
- -t 0.875815125 -s 7 -d 9 -p ack -e 40 -c 1 -i 4 -a 1 -x {7.0 1.0 1 ------- null}
h -t 0.875815125 -s 7 -d 9 -p ack -e 40 -c 1 -i 4 -a 1 -x {7.0 1.0 -1 ------- null}
+ -t 0.87770575 -s 7 -d 9 -p ack -e 40 -c 1 -i 5 -a 1 -x {7.0 1.0 2 ------- null}
- -t 0.87770575 -s 7 -d 9 -p ack -e 40 -c 1 -i 5 -a 1 -x {7.0 1.0 2 ------- null}
h -t 0.87770575 -s 7 -d 9 -p ack -e 40 -c 1 -i 5 -a 1 -x {7.0 1.0 -1 ------- null}
r -t 0.916819125 -s 9 -d 3 -p ack -e 40 -c 1 -i 4 -a 1 -x {7.0 1.0 1 ------- null}
+ -t 0.916819125 -s 3 -d 0 -p ack -e 40 -c 1 -i 4 -a 1 -x {7.0 1.0 1 ------- null}
- -t 0.916819125 -s 3 -d 0 -p ack -e 40 -c 1 -i 4 -a 1 -x {7.0 1.0 1 ------- null}
h -t 0.916819125 -s 3 -d 0 -p ack -e 40 -c 1 -i 4 -a 1 -x {7.0 1.0 -1 ------- null}
r -t 0.91870975 -s 9 -d 3 -p ack -e 40 -c 1 -i 5 -a 1 -x {7.0 1.0 2 ------- null}
+ -t 0.91870975 -s 3 -d 0 -p ack -e 40 -c 1 -i 5 -a 1 -x {7.0 1.0 2 ------- null}
- -t 0.91870975 -s 3 -d 0 -p ack -e 40 -c 1 -i 5 -a 1 -x {7.0 1.0 2 ------- null}
h -t 0.91870975 -s 3 -d 0 -p ack -e 40 -c 1 -i 5 -a 1 -x {7.0 1.0 -1 ------- null}
r -t 0.937139125 -s 3 -d 0 -p ack -e 40 -c 1 -i 4 -a 1 -x {7.0 1.0 1 ------- null}
+ -t 0.937139125 -s 0 -d 1 -p ack -e 40 -c 1 -i 4 -a 1 -x {7.0 1.0 1 ------- null}
- -t 0.937139125 -s 0 -d 1 -p ack -e 40 -c 1 -i 4 -a 1 -x {7.0 1.0 1 ------- null}
h -t 0.937139125 -s 0 -d 1 -p ack -e 40 -c 1 -i 4 -a 1 -x {7.0 1.0 -1 ------- null}
r -t 0.93902975 -s 3 -d 0 -p ack -e 40 -c 1 -i 5 -a 1 -x {7.0 1.0 2 ------- null}
+ -t 0.93902975 -s 0 -d 1 -p ack -e 40 -c 1 -i 5 -a 1 -x {7.0 1.0 2 ------- null}
- -t 0.93902975 -s 0 -d 1 -p ack -e 40 -c 1 -i 5 -a 1 -x {7.0 1.0 2 ------- null}
h -t 0.93902975 -s 0 -d 1 -p ack -e 40 -c 1 -i 5 -a 1 -x {7.0 1.0 -1 ------- null}
r -t 0.947299125 -s 0 -d 1 -p ack -e 40 -c 1 -i 4 -a 1 -x {7.0 1.0 1 ------- null}
+ -t 0.947299125 -s 1 -d 0 -p tcp -e 95 -c 1 -i 6 -a 1 -x {1.0 7.0 3 ------- null}
- -t 0.947299125 -s 1 -d 0 -p tcp -e 95 -c 1 -i 6 -a 1 -x {1.0 7.0 3 ------- null}
h -t 0.947299125 -s 1 -d 0 -p tcp -e 95 -c 1 -i 6 -a 1 -x {1.0 7.0 -1 ------- null}
+ -t 0.947299125 -s 1 -d 0 -p tcp -e 95 -c 1 -i 7 -a 1 -x {1.0 7.0 4 ------- null}
- -t 0.947679125 -s 1 -d 0 -p tcp -e 95 -c 1 -i 7 -a 1 -x {1.0 7.0 4 ------- null}
h -t 0.947679125 -s 1 -d 0 -p tcp -e 95 -c 1 -i 7 -a 1 -x {1.0 7.0 -1 ------- null}
r -t 0.94918975 -s 0 -d 1 -p ack -e 40 -c 1 -i 5 -a 1 -x {7.0 1.0 2 ------- null}
+ -t 0.94918975 -s 1 -d 0 -p tcp -e 95 -c 1 -i 8 -a 1 -x {1.0 7.0 5 ------- null}
- -t 0.94918975 -s 1 -d 0 -p tcp -e 95 -c 1 -i 8 -a 1 -x {1.0 7.0 5 ------- null}
h -t 0.94918975 -s 1 -d 0 -p tcp -e 95 -c 1 -i 8 -a 1 -x {1.0 7.0 -1 ------- null}
+ -t 0.94918975 -s 1 -d 0 -p tcp -e 95 -c 1 -i 9 -a 1 -x {1.0 7.0 6 ------- null}
- -t 0.94956975 -s 1 -d 0 -p tcp -e 95 -c 1 -i 9 -a 1 -x {1.0 7.0 6 ------- null}
h -t 0.94956975 -s 1 -d 0 -p tcp -e 95 -c 1 -i 9 -a 1 -x {1.0 7.0 -1 ------- null}
r -t 0.957679125 -s 1 -d 0 -p tcp -e 95 -c 1 -i 6 -a 1 -x {1.0 7.0 3 ------- null}
+ -t 0.957679125 -s 0 -d 3 -p tcp -e 95 -c 1 -i 6 -a 1 -x {1.0 7.0 3 ------- null}
- -t 0.957679125 -s 0 -d 3 -p tcp -e 95 -c 1 -i 6 -a 1 -x {1.0 7.0 3 ------- null}
h -t 0.957679125 -s 0 -d 3 -p tcp -e 95 -c 1 -i 6 -a 1 -x {1.0 7.0 -1 ------- null}
r -t 0.958059125 -s 1 -d 0 -p tcp -e 95 -c 1 -i 7 -a 1 -x {1.0 7.0 4 ------- null}
+ -t 0.958059125 -s 0 -d 3 -p tcp -e 95 -c 1 -i 7 -a 1 -x {1.0 7.0 4 ------- null}
- -t 0.958439125 -s 0 -d 3 -p tcp -e 95 -c 1 -i 7 -a 1 -x {1.0 7.0 4 ------- null}
h -t 0.958439125 -s 0 -d 3 -p tcp -e 95 -c 1 -i 7 -a 1 -x {1.0 7.0 -1 ------- null}
r -t 0.95956975 -s 1 -d 0 -p tcp -e 95 -c 1 -i 8 -a 1 -x {1.0 7.0 5 ------- null}
+ -t 0.95956975 -s 0 -d 3 -p tcp -e 95 -c 1 -i 8 -a 1 -x {1.0 7.0 5 ------- null}
- -t 0.95956975 -s 0 -d 3 -p tcp -e 95 -c 1 -i 8 -a 1 -x {1.0 7.0 5 ------- null}
h -t 0.95956975 -s 0 -d 3 -p tcp -e 95 -c 1 -i 8 -a 1 -x {1.0 7.0 -1 ------- null}
r -t 0.95994975 -s 1 -d 0 -p tcp -e 95 -c 1 -i 9 -a 1 -x {1.0 7.0 6 ------- null}
+ -t 0.95994975 -s 0 -d 3 -p tcp -e 95 -c 1 -i 9 -a 1 -x {1.0 7.0 6 ------- null}
- -t 0.96032975 -s 0 -d 3 -p tcp -e 95 -c 1 -i 9 -a 1 -x {1.0 7.0 6 ------- null}
h -t 0.96032975 -s 0 -d 3 -p tcp -e 95 -c 1 -i 9 -a 1 -x {1.0 7.0 -1 ------- null}
r -t 0.978439125 -s 0 -d 3 -p tcp -e 95 -c 1 -i 6 -a 1 -x {1.0 7.0 3 ------- null}
h -t 0.978439125 -s 3 -d 9 -p tcp -e 95 -c 1 -i 6 -a 1 -x {1.0 7.0 3 ------- null}
r -t 0.979199125 -s 0 -d 3 -p tcp -e 95 -c 1 -i 7 -a 1 -x {1.0 7.0 4 ------- null}
h -t 0.979199125 -s 3 -d 9 -p tcp -e 95 -c 1 -i 7 -a 1 -x {1.0 7.0 4 ------- null}
r -t 0.98032975 -s 0 -d 3 -p tcp -e 95 -c 1 -i 8 -a 1 -x {1.0 7.0 5 ------- null}
h -t 0.98032975 -s 3 -d 9 -p tcp -e 95 -c 1 -i 8 -a 1 -x {1.0 7.0 5 ------- null}
r -t 0.98108975 -s 0 -d 3 -p tcp -e 95 -c 1 -i 9 -a 1 -x {1.0 7.0 6 ------- null}
h -t 0.98108975 -s 3 -d 9 -p tcp -e 95 -c 1 -i 9 -a 1 -x {1.0 7.0 6 ------- null}
+ -t 1 -s 2 -d 0 -p tcp -e 40 -c 2 -i 10 -a 2 -x {2.0 8.0 0 ------- null}
- -t 1 -s 2 -d 0 -p tcp -e 40 -c 2 -i 10 -a 2 -x {2.0 8.0 0 ------- null}
h -t 1 -s 2 -d 0 -p tcp -e 40 -c 2 -i 10 -a 2 -x {2.0 8.0 -1 ------- null}
r -t 1.01016 -s 2 -d 0 -p tcp -e 40 -c 2 -i 10 -a 2 -x {2.0 8.0 0 ------- null}
+ -t 1.01016 -s 0 -d 3 -p tcp -e 40 -c 2 -i 10 -a 2 -x {2.0 8.0 0 ------- null}
- -t 1.01016 -s 0 -d 3 -p tcp -e 40 -c 2 -i 10 -a 2 -x {2.0 8.0 0 ------- null}
h -t 1.01016 -s 0 -d 3 -p tcp -e 40 -c 2 -i 10 -a 2 -x {2.0 8.0 -1 ------- null}
+ -t 1.018439125 -s 3 -d 9 -p tcp -e 95 -c 1 -i 6 -a 1 -x {1.0 7.0 3 ------- null}
- -t 1.018439125 -s 3 -d 9 -p tcp -e 95 -c 1 -i 6 -a 1 -x {1.0 7.0 3 ------- null}
h -t 1.018439125 -s 3 -d 9 -p tcp -e 95 -c 1 -i 6 -a 1 -x {1.0 7.0 -1 ------- null}
+ -t 1.019199125 -s 3 -d 9 -p tcp -e 95 -c 1 -i 7 -a 1 -x {1.0 7.0 4 ------- null}
+ -t 1.02032975 -s 3 -d 9 -p tcp -e 95 -c 1 -i 8 -a 1 -x {1.0 7.0 5 ------- null}
- -t 1.02032975 -s 3 -d 9 -p tcp -e 95 -c 1 -i 7 -a 1 -x {1.0 7.0 4 ------- null}
h -t 1.02032975 -s 3 -d 9 -p tcp -e 95 -c 1 -i 7 -a 1 -x {1.0 7.0 -1 ------- null}
+ -t 1.02108975 -s 3 -d 9 -p tcp -e 95 -c 1 -i 9 -a 1 -x {1.0 7.0 6 ------- null}
- -t 1.022220375 -s 3 -d 9 -p tcp -e 95 -c 1 -i 8 -a 1 -x {1.0 7.0 5 ------- null}
h -t 1.022220375 -s 3 -d 9 -p tcp -e 95 -c 1 -i 8 -a 1 -x {1.0 7.0 -1 ------- null}
- -t 1.024111 -s 3 -d 9 -p tcp -e 95 -c 1 -i 9 -a 1 -x {1.0 7.0 6 ------- null}
h -t 1.024111 -s 3 -d 9 -p tcp -e 95 -c 1 -i 9 -a 1 -x {1.0 7.0 -1 ------- null}
r -t 1.03048 -s 0 -d 3 -p tcp -e 40 -c 2 -i 10 -a 2 -x {2.0 8.0 0 ------- null}
h -t 1.03048 -s 3 -d 9 -p tcp -e 40 -c 2 -i 10 -a 2 -x {2.0 8.0 0 ------- null}
r -t 1.06014625 -s 9 -d 7 -p tcp -e 95 -c 1 -i 6 -a 1 -x {1.0 7.0 3 ------- null}
h -t 1.06014625 -s 7 -d 9 -p ack -e 40 -c 1 -i 11 -a 1 -x {7.0 1.0 3 ------- null}
r -t 1.062036875 -s 9 -d 7 -p tcp -e 95 -c 1 -i 7 -a 1 -x {1.0 7.0 4 ------- null}
h -t 1.062036875 -s 7 -d 9 -p ack -e 40 -c 1 -i 12 -a 1 -x {7.0 1.0 4 ------- null}
r -t 1.0639275 -s 9 -d 7 -p tcp -e 95 -c 1 -i 8 -a 1 -x {1.0 7.0 5 ------- null}
h -t 1.0639275 -s 7 -d 9 -p ack -e 40 -c 1 -i 13 -a 1 -x {7.0 1.0 5 ------- null}
r -t 1.065818125 -s 9 -d 7 -p tcp -e 95 -c 1 -i 9 -a 1 -x {1.0 7.0 6 ------- null}
h -t 1.065818125 -s 7 -d 9 -p ack -e 40 -c 1 -i 14 -a 1 -x {7.0 1.0 6 ------- null}
+ -t 1.07048 -s 3 -d 9 -p tcp -e 40 -c 2 -i 10 -a 2 -x {2.0 8.0 0 ------- null}
- -t 1.07048 -s 3 -d 9 -p tcp -e 40 -c 2 -i 10 -a 2 -x {2.0 8.0 0 ------- null}
h -t 1.07048 -s 3 -d 9 -p tcp -e 40 -c 2 -i 10 -a 2 -x {2.0 8.0 -1 ------- null}
+ -t 1.10014625 -s 7 -d 9 -p ack -e 40 -c 1 -i 11 -a 1 -x {7.0 1.0 3 ------- null}
- -t 1.10014625 -s 7 -d 9 -p ack -e 40 -c 1 -i 11 -a 1 -x {7.0 1.0 3 ------- null}
h -t 1.10014625 -s 7 -d 9 -p ack -e 40 -c 1 -i 11 -a 1 -x {7.0 1.0 -1 ------- null}
+ -t 1.102036875 -s 7 -d 9 -p ack -e 40 -c 1 -i 12 -a 1 -x {7.0 1.0 4 ------- null}
- -t 1.102036875 -s 7 -d 9 -p ack -e 40 -c 1 -i 12 -a 1 -x {7.0 1.0 4 ------- null}
h -t 1.102036875 -s 7 -d 9 -p ack -e 40 -c 1 -i 12 -a 1 -x {7.0 1.0 -1 ------- null}
+ -t 1.1039275 -s 7 -d 9 -p ack -e 40 -c 1 -i 13 -a 1 -x {7.0 1.0 5 ------- null}
- -t 1.1039275 -s 7 -d 9 -p ack -e 40 -c 1 -i 13 -a 1 -x {7.0 1.0 5 ------- null}
h -t 1.1039275 -s 7 -d 9 -p ack -e 40 -c 1 -i 13 -a 1 -x {7.0 1.0 -1 ------- null}
+ -t 1.105818125 -s 7 -d 9 -p ack -e 40 -c 1 -i 14 -a 1 -x {7.0 1.0 6 ------- null}
- -t 1.105818125 -s 7 -d 9 -p ack -e 40 -c 1 -i 14 -a 1 -x {7.0 1.0 6 ------- null}
h -t 1.105818125 -s 7 -d 9 -p ack -e 40 -c 1 -i 14 -a 1 -x {7.0 1.0 -1 ------- null}
r -t 1.111484 -s 9 -d 8 -p tcp -e 40 -c 2 -i 10 -a 2 -x {2.0 8.0 0 ------- null}
h -t 1.111484 -s 8 -d 9 -p ack -e 40 -c 2 -i 15 -a 2 -x {8.0 2.0 0 ------- null}
r -t 1.14115025 -s 9 -d 3 -p ack -e 40 -c 1 -i 11 -a 1 -x {7.0 1.0 3 ------- null}
+ -t 1.14115025 -s 3 -d 0 -p ack -e 40 -c 1 -i 11 -a 1 -x {7.0 1.0 3 ------- null}
- -t 1.14115025 -s 3 -d 0 -p ack -e 40 -c 1 -i 11 -a 1 -x {7.0 1.0 3 ------- null}
h -t 1.14115025 -s 3 -d 0 -p ack -e 40 -c 1 -i 11 -a 1 -x {7.0 1.0 -1 ------- null}
r -t 1.143040875 -s 9 -d 3 -p ack -e 40 -c 1 -i 12 -a 1 -x {7.0 1.0 4 ------- null}
+ -t 1.143040875 -s 3 -d 0 -p ack -e 40 -c 1 -i 12 -a 1 -x {7.0 1.0 4 ------- null}
- -t 1.143040875 -s 3 -d 0 -p ack -e 40 -c 1 -i 12 -a 1 -x {7.0 1.0 4 ------- null}
h -t 1.143040875 -s 3 -d 0 -p ack -e 40 -c 1 -i 12 -a 1 -x {7.0 1.0 -1 ------- null}
r -t 1.1449315 -s 9 -d 3 -p ack -e 40 -c 1 -i 13 -a 1 -x {7.0 1.0 5 ------- null}
+ -t 1.1449315 -s 3 -d 0 -p ack -e 40 -c 1 -i 13 -a 1 -x {7.0 1.0 5 ------- null}
- -t 1.1449315 -s 3 -d 0 -p ack -e 40 -c 1 -i 13 -a 1 -x {7.0 1.0 5 ------- null}
h -t 1.1449315 -s 3 -d 0 -p ack -e 40 -c 1 -i 13 -a 1 -x {7.0 1.0 -1 ------- null}
r -t 1.146822125 -s 9 -d 3 -p ack -e 40 -c 1 -i 14 -a 1 -x {7.0 1.0 6 ------- null}
+ -t 1.146822125 -s 3 -d 0 -p ack -e 40 -c 1 -i 14 -a 1 -x {7.0 1.0 6 ------- null}
- -t 1.146822125 -s 3 -d 0 -p ack -e 40 -c 1 -i 14 -a 1 -x {7.0 1.0 6 ------- null}
h -t 1.146822125 -s 3 -d 0 -p ack -e 40 -c 1 -i 14 -a 1 -x {7.0 1.0 -1 ------- null}
+ -t 1.151484 -s 8 -d 9 -p ack -e 40 -c 2 -i 15 -a 2 -x {8.0 2.0 0 ------- null}
- -t 1.151484 -s 8 -d 9 -p ack -e 40 -c 2 -i 15 -a 2 -x {8.0 2.0 0 ------- null}
h -t 1.151484 -s 8 -d 9 -p ack -e 40 -c 2 -i 15 -a 2 -x {8.0 2.0 -1 ------- null}
r -t 1.16147025 -s 3 -d 0 -p ack -e 40 -c 1 -i 11 -a 1 -x {7.0 1.0 3 ------- null}
+ -t 1.16147025 -s 0 -d 1 -p ack -e 40 -c 1 -i 11 -a 1 -x {7.0 1.0 3 ------- null}
- -t 1.16147025 -s 0 -d 1 -p ack -e 40 -c 1 -i 11 -a 1 -x {7.0 1.0 3 ------- null}
h -t 1.16147025 -s 0 -d 1 -p ack -e 40 -c 1 -i 11 -a 1 -x {7.0 1.0 -1 ------- null}
r -t 1.163360875 -s 3 -d 0 -p ack -e 40 -c 1 -i 12 -a 1 -x {7.0 1.0 4 ------- null}
+ -t 1.163360875 -s 0 -d 1 -p ack -e 40 -c 1 -i 12 -a 1 -x {7.0 1.0 4 ------- null}
- -t 1.163360875 -s 0 -d 1 -p ack -e 40 -c 1 -i 12 -a 1 -x {7.0 1.0 4 ------- null}
h -t 1.163360875 -s 0 -d 1 -p ack -e 40 -c 1 -i 12 -a 1 -x {7.0 1.0 -1 ------- null}
r -t 1.1652515 -s 3 -d 0 -p ack -e 40 -c 1 -i 13 -a 1 -x {7.0 1.0 5 ------- null}
+ -t 1.1652515 -s 0 -d 1 -p ack -e 40 -c 1 -i 13 -a 1 -x {7.0 1.0 5 ------- null}
- -t 1.1652515 -s 0 -d 1 -p ack -e 40 -c 1 -i 13 -a 1 -x {7.0 1.0 5 ------- null}
h -t 1.1652515 -s 0 -d 1 -p ack -e 40 -c 1 -i 13 -a 1 -x {7.0 1.0 -1 ------- null}
r -t 1.167142125 -s 3 -d 0 -p ack -e 40 -c 1 -i 14 -a 1 -x {7.0 1.0 6 ------- null}
+ -t 1.167142125 -s 0 -d 1 -p ack -e 40 -c 1 -i 14 -a 1 -x {7.0 1.0 6 ------- null}
- -t 1.167142125 -s 0 -d 1 -p ack -e 40 -c 1 -i 14 -a 1 -x {7.0 1.0 6 ------- null}
h -t 1.167142125 -s 0 -d 1 -p ack -e 40 -c 1 -i 14 -a 1 -x {7.0 1.0 -1 ------- null}
r -t 1.17163025 -s 0 -d 1 -p ack -e 40 -c 1 -i 11 -a 1 -x {7.0 1.0 3 ------- null}
+ -t 1.17163025 -s 1 -d 0 -p tcp -e 95 -c 1 -i 16 -a 1 -x {1.0 7.0 7 ------- null}
- -t 1.17163025 -s 1 -d 0 -p tcp -e 95 -c 1 -i 16 -a 1 -x {1.0 7.0 7 ------- null}
h -t 1.17163025 -s 1 -d 0 -p tcp -e 95 -c 1 -i 16 -a 1 -x {1.0 7.0 -1 ------- null}
+ -t 1.17163025 -s 1 -d 0 -p tcp -e 95 -c 1 -i 17 -a 1 -x {1.0 7.0 8 ------- null}
- -t 1.17201025 -s 1 -d 0 -p tcp -e 95 -c 1 -i 17 -a 1 -x {1.0 7.0 8 ------- null}
h -t 1.17201025 -s 1 -d 0 -p tcp -e 95 -c 1 -i 17 -a 1 -x {1.0 7.0 -1 ------- null}
r -t 1.173520875 -s 0 -d 1 -p ack -e 40 -c 1 -i 12 -a 1 -x {7.0 1.0 4 ------- null}
+ -t 1.173520875 -s 1 -d 0 -p tcp -e 95 -c 1 -i 18 -a 1 -x {1.0 7.0 9 ------- null}
- -t 1.173520875 -s 1 -d 0 -p tcp -e 95 -c 1 -i 18 -a 1 -x {1.0 7.0 9 ------- null}
h -t 1.173520875 -s 1 -d 0 -p tcp -e 95 -c 1 -i 18 -a 1 -x {1.0 7.0 -1 ------- null}
+ -t 1.173520875 -s 1 -d 0 -p tcp -e 95 -c 1 -i 19 -a 1 -x {1.0 7.0 10 ------- null}
- -t 1.173900875 -s 1 -d 0 -p tcp -e 95 -c 1 -i 19 -a 1 -x {1.0 7.0 10 ------- null}
h -t 1.173900875 -s 1 -d 0 -p tcp -e 95 -c 1 -i 19 -a 1 -x {1.0 7.0 -1 ------- null}
r -t 1.1754115 -s 0 -d 1 -p ack -e 40 -c 1 -i 13 -a 1 -x {7.0 1.0 5 ------- null}
+ -t 1.1754115 -s 1 -d 0 -p tcp -e 95 -c 1 -i 20 -a 1 -x {1.0 7.0 11 ------- null}
- -t 1.1754115 -s 1 -d 0 -p tcp -e 95 -c 1 -i 20 -a 1 -x {1.0 7.0 11 ------- null}
h -t 1.1754115 -s 1 -d 0 -p tcp -e 95 -c 1 -i 20 -a 1 -x {1.0 7.0 -1 ------- null}
+ -t 1.1754115 -s 1 -d 0 -p tcp -e 95 -c 1 -i 21 -a 1 -x {1.0 7.0 12 ------- null}
- -t 1.1757915 -s 1 -d 0 -p tcp -e 95 -c 1 -i 21 -a 1 -x {1.0 7.0 12 ------- null}
h -t 1.1757915 -s 1 -d 0 -p tcp -e 95 -c 1 -i 21 -a 1 -x {1.0 7.0 -1 ------- null}
r -t 1.177302125 -s 0 -d 1 -p ack -e 40 -c 1 -i 14 -a 1 -x {7.0 1.0 6 ------- null}
+ -t 1.177302125 -s 1 -d 0 -p tcp -e 95 -c 1 -i 22 -a 1 -x {1.0 7.0 13 ------- null}
- -t 1.177302125 -s 1 -d 0 -p tcp -e 95 -c 1 -i 22 -a 1 -x {1.0 7.0 13 ------- null}
h -t 1.177302125 -s 1 -d 0 -p tcp -e 95 -c 1 -i 22 -a 1 -x {1.0 7.0 -1 ------- null}
+ -t 1.177302125 -s 1 -d 0 -p tcp -e 95 -c 1 -i 23 -a 1 -x {1.0 7.0 14 ------- null}
- -t 1.177682125 -s 1 -d 0 -p tcp -e 95 -c 1 -i 23 -a 1 -x {1.0 7.0 14 ------- null}
h -t 1.177682125 -s 1 -d 0 -p tcp -e 95 -c 1 -i 23 -a 1 -x {1.0 7.0 -1 ------- null}
r -t 1.18201025 -s 1 -d 0 -p tcp -e 95 -c 1 -i 16 -a 1 -x {1.0 7.0 7 ------- null}
+ -t 1.18201025 -s 0 -d 3 -p tcp -e 95 -c 1 -i 16 -a 1 -x {1.0 7.0 7 ------- null}
- -t 1.18201025 -s 0 -d 3 -p tcp -e 95 -c 1 -i 16 -a 1 -x {1.0 7.0 7 ------- null}
h -t 1.18201025 -s 0 -d 3 -p tcp -e 95 -c 1 -i 16 -a 1 -x {1.0 7.0 -1 ------- null}
r -t 1.18239025 -s 1 -d 0 -p tcp -e 95 -c 1 -i 17 -a 1 -x {1.0 7.0 8 ------- null}
+ -t 1.18239025 -s 0 -d 3 -p tcp -e 95 -c 1 -i 17 -a 1 -x {1.0 7.0 8 ------- null}
- -t 1.18277025 -s 0 -d 3 -p tcp -e 95 -c 1 -i 17 -a 1 -x {1.0 7.0 8 ------- null}
h -t 1.18277025 -s 0 -d 3 -p tcp -e 95 -c 1 -i 17 -a 1 -x {1.0 7.0 -1 ------- null}
r -t 1.183900875 -s 1 -d 0 -p tcp -e 95 -c 1 -i 18 -a 1 -x {1.0 7.0 9 ------- null}
+ -t 1.183900875 -s 0 -d 3 -p tcp -e 95 -c 1 -i 18 -a 1 -x {1.0 7.0 9 ------- null}
- -t 1.183900875 -s 0 -d 3 -p tcp -e 95 -c 1 -i 18 -a 1 -x {1.0 7.0 9 ------- null}
h -t 1.183900875 -s 0 -d 3 -p tcp -e 95 -c 1 -i 18 -a 1 -x {1.0 7.0 -1 ------- null}
r -t 1.184280875 -s 1 -d 0 -p tcp -e 95 -c 1 -i 19 -a 1 -x {1.0 7.0 10 ------- null}
+ -t 1.184280875 -s 0 -d 3 -p tcp -e 95 -c 1 -i 19 -a 1 -x {1.0 7.0 10 ------- null}
- -t 1.184660875 -s 0 -d 3 -p tcp -e 95 -c 1 -i 19 -a 1 -x {1.0 7.0 10 ------- null}
h -t 1.184660875 -s 0 -d 3 -p tcp -e 95 -c 1 -i 19 -a 1 -x {1.0 7.0 -1 ------- null}
r -t 1.1857915 -s 1 -d 0 -p tcp -e 95 -c 1 -i 20 -a 1 -x {1.0 7.0 11 ------- null}
+ -t 1.1857915 -s 0 -d 3 -p tcp -e 95 -c 1 -i 20 -a 1 -x {1.0 7.0 11 ------- null}
- -t 1.1857915 -s 0 -d 3 -p tcp -e 95 -c 1 -i 20 -a 1 -x {1.0 7.0 11 ------- null}
h -t 1.1857915 -s 0 -d 3 -p tcp -e 95 -c 1 -i 20 -a 1 -x {1.0 7.0 -1 ------- null}
r -t 1.1861715 -s 1 -d 0 -p tcp -e 95 -c 1 -i 21 -a 1 -x {1.0 7.0 12 ------- null}
+ -t 1.1861715 -s 0 -d 3 -p tcp -e 95 -c 1 -i 21 -a 1 -x {1.0 7.0 12 ------- null}
- -t 1.1865515 -s 0 -d 3 -p tcp -e 95 -c 1 -i 21 -a 1 -x {1.0 7.0 12 ------- null}
h -t 1.1865515 -s 0 -d 3 -p tcp -e 95 -c 1 -i 21 -a 1 -x {1.0 7.0 -1 ------- null}
r -t 1.187682125 -s 1 -d 0 -p tcp -e 95 -c 1 -i 22 -a 1 -x {1.0 7.0 13 ------- null}
+ -t 1.187682125 -s 0 -d 3 -p tcp -e 95 -c 1 -i 22 -a 1 -x {1.0 7.0 13 ------- null}
- -t 1.187682125 -s 0 -d 3 -p tcp -e 95 -c 1 -i 22 -a 1 -x {1.0 7.0 13 ------- null}
h -t 1.187682125 -s 0 -d 3 -p tcp -e 95 -c 1 -i 22 -a 1 -x {1.0 7.0 -1 ------- null}
r -t 1.188062125 -s 1 -d 0 -p tcp -e 95 -c 1 -i 23 -a 1 -x {1.0 7.0 14 ------- null}
+ -t 1.188062125 -s 0 -d 3 -p tcp -e 95 -c 1 -i 23 -a 1 -x {1.0 7.0 14 ------- null}
- -t 1.188442125 -s 0 -d 3 -p tcp -e 95 -c 1 -i 23 -a 1 -x {1.0 7.0 14 ------- null}
h -t 1.188442125 -s 0 -d 3 -p tcp -e 95 -c 1 -i 23 -a 1 -x {1.0 7.0 -1 ------- null}
r -t 1.192488 -s 9 -d 3 -p ack -e 40 -c 2 -i 15 -a 2 -x {8.0 2.0 0 ------- null}
+ -t 1.192488 -s 3 -d 0 -p ack -e 40 -c 2 -i 15 -a 2 -x {8.0 2.0 0 ------- null}
- -t 1.192488 -s 3 -d 0 -p ack -e 40 -c 2 -i 15 -a 2 -x {8.0 2.0 0 ------- null}
h -t 1.192488 -s 3 -d 0 -p ack -e 40 -c 2 -i 15 -a 2 -x {8.0 2.0 -1 ------- null}
r -t 1.20277025 -s 0 -d 3 -p tcp -e 95 -c 1 -i 16 -a 1 -x {1.0 7.0 7 ------- null}
h -t 1.20277025 -s 3 -d 9 -p tcp -e 95 -c 1 -i 16 -a 1 -x {1.0 7.0 7 ------- null}
r -t 1.20353025 -s 0 -d 3 -p tcp -e 95 -c 1 -i 17 -a 1 -x {1.0 7.0 8 ------- null}
h -t 1.20353025 -s 3 -d 9 -p tcp -e 95 -c 1 -i 17 -a 1 -x {1.0 7.0 8 ------- null}
r -t 1.204660875 -s 0 -d 3 -p tcp -e 95 -c 1 -i 18 -a 1 -x {1.0 7.0 9 ------- null}
h -t 1.204660875 -s 3 -d 9 -p tcp -e 95 -c 1 -i 18 -a 1 -x {1.0 7.0 9 ------- null}
r -t 1.205420875 -s 0 -d 3 -p tcp -e 95 -c 1 -i 19 -a 1 -x {1.0 7.0 10 ------- null}
h -t 1.205420875 -s 3 -d 9 -p tcp -e 95 -c 1 -i 19 -a 1 -x {1.0 7.0 10 ------- null}
r -t 1.2065515 -s 0 -d 3 -p tcp -e 95 -c 1 -i 20 -a 1 -x {1.0 7.0 11 ------- null}
h -t 1.2065515 -s 3 -d 9 -p tcp -e 95 -c 1 -i 20 -a 1 -x {1.0 7.0 11 ------- null}
r -t 1.2073115 -s 0 -d 3 -p tcp -e 95 -c 1 -i 21 -a 1 -x {1.0 7.0 12 ------- null}
h -t 1.2073115 -s 3 -d 9 -p tcp -e 95 -c 1 -i 21 -a 1 -x {1.0 7.0 12 ------- null}
r -t 1.208442125 -s 0 -d 3 -p tcp -e 95 -c 1 -i 22 -a 1 -x {1.0 7.0 13 ------- null}
h -t 1.208442125 -s 3 -d 9 -p tcp -e 95 -c 1 -i 22 -a 1 -x {1.0 7.0 13 ------- null}
r -t 1.209202125 -s 0 -d 3 -p tcp -e 95 -c 1 -i 23 -a 1 -x {1.0 7.0 14 ------- null}
h -t 1.209202125 -s 3 -d 9 -p tcp -e 95 -c 1 -i 23 -a 1 -x {1.0 7.0 14 ------- null}
r -t 1.212808 -s 3 -d 0 -p ack -e 40 -c 2 -i 15 -a 2 -x {8.0 2.0 0 ------- null}
+ -t 1.212808 -s 0 -d 2 -p ack -e 40 -c 2 -i 15 -a 2 -x {8.0 2.0 0 ------- null}
- -t 1.212808 -s 0 -d 2 -p ack -e 40 -c 2 -i 15 -a 2 -x {8.0 2.0 0 ------- null}
h -t 1.212808 -s 0 -d 2 -p ack -e 40 -c 2 -i 15 -a 2 -x {8.0 2.0 -1 ------- null}
r -t 1.222968 -s 0 -d 2 -p ack -e 40 -c 2 -i 15 -a 2 -x {8.0 2.0 0 ------- null}
+ -t 1.222968 -s 2 -d 0 -p tcp -e 95 -c 2 -i 24 -a 2 -x {2.0 8.0 1 ------- null}
- -t 1.222968 -s 2 -d 0 -p tcp -e 95 -c 2 -i 24 -a 2 -x {2.0 8.0 1 ------- null}
h -t 1.222968 -s 2 -d 0 -p tcp -e 95 -c 2 -i 24 -a 2 -x {2.0 8.0 -1 ------- null}
+ -t 1.222968 -s 2 -d 0 -p tcp -e 95 -c 2 -i 25 -a 2 -x {2.0 8.0 2 ------- null}
- -t 1.223348 -s 2 -d 0 -p tcp -e 95 -c 2 -i 25 -a 2 -x {2.0 8.0 2 ------- null}
h -t 1.223348 -s 2 -d 0 -p tcp -e 95 -c 2 -i 25 -a 2 -x {2.0 8.0 -1 ------- null}
r -t 1.233348 -s 2 -d 0 -p tcp -e 95 -c 2 -i 24 -a 2 -x {2.0 8.0 1 ------- null}
+ -t 1.233348 -s 0 -d 3 -p tcp -e 95 -c 2 -i 24 -a 2 -x {2.0 8.0 1 ------- null}
- -t 1.233348 -s 0 -d 3 -p tcp -e 95 -c 2 -i 24 -a 2 -x {2.0 8.0 1 ------- null}
h -t 1.233348 -s 0 -d 3 -p tcp -e 95 -c 2 -i 24 -a 2 -x {2.0 8.0 -1 ------- null}
r -t 1.233728 -s 2 -d 0 -p tcp -e 95 -c 2 -i 25 -a 2 -x {2.0 8.0 2 ------- null}
+ -t 1.233728 -s 0 -d 3 -p tcp -e 95 -c 2 -i 25 -a 2 -x {2.0 8.0 2 ------- null}
- -t 1.234108 -s 0 -d 3 -p tcp -e 95 -c 2 -i 25 -a 2 -x {2.0 8.0 2 ------- null}
h -t 1.234108 -s 0 -d 3 -p tcp -e 95 -c 2 -i 25 -a 2 -x {2.0 8.0 -1 ------- null}
+ -t 1.24277025 -s 3 -d 9 -p tcp -e 95 -c 1 -i 16 -a 1 -x {1.0 7.0 7 ------- null}
- -t 1.24277025 -s 3 -d 9 -p tcp -e 95 -c 1 -i 16 -a 1 -x {1.0 7.0 7 ------- null}
h -t 1.24277025 -s 3 -d 9 -p tcp -e 95 -c 1 -i 16 -a 1 -x {1.0 7.0 -1 ------- null}
+ -t 1.24353025 -s 3 -d 9 -p tcp -e 95 -c 1 -i 17 -a 1 -x {1.0 7.0 8 ------- null}
+ -t 1.244660875 -s 3 -d 9 -p tcp -e 95 -c 1 -i 18 -a 1 -x {1.0 7.0 9 ------- null}
- -t 1.244660875 -s 3 -d 9 -p tcp -e 95 -c 1 -i 17 -a 1 -x {1.0 7.0 8 ------- null}
h -t 1.244660875 -s 3 -d 9 -p tcp -e 95 -c 1 -i 17 -a 1 -x {1.0 7.0 -1 ------- null}
+ -t 1.245420875 -s 3 -d 9 -p tcp -e 95 -c 1 -i 19 -a 1 -x {1.0 7.0 10 ------- null}
+ -t 1.2465515 -s 3 -d 9 -p tcp -e 95 -c 1 -i 20 -a 1 -x {1.0 7.0 11 ------- null}
- -t 1.2465515 -s 3 -d 9 -p tcp -e 95 -c 1 -i 18 -a 1 -x {1.0 7.0 9 ------- null}
h -t 1.2465515 -s 3 -d 9 -p tcp -e 95 -c 1 -i 18 -a 1 -x {1.0 7.0 -1 ------- null}
+ -t 1.2473115 -s 3 -d 9 -p tcp -e 95 -c 1 -i 21 -a 1 -x {1.0 7.0 12 ------- null}
+ -t 1.248442125 -s 3 -d 9 -p tcp -e 95 -c 1 -i 22 -a 1 -x {1.0 7.0 13 ------- null}
- -t 1.248442125 -s 3 -d 9 -p tcp -e 95 -c 1 -i 19 -a 1 -x {1.0 7.0 10 ------- null}
h -t 1.248442125 -s 3 -d 9 -p tcp -e 95 -c 1 -i 19 -a 1 -x {1.0 7.0 -1 ------- null}
+ -t 1.249202125 -s 3 -d 9 -p tcp -e 95 -c 1 -i 23 -a 1 -x {1.0 7.0 14 ------- null}
- -t 1.25033275 -s 3 -d 9 -p tcp -e 95 -c 1 -i 20 -a 1 -x {1.0 7.0 11 ------- null}
h -t 1.25033275 -s 3 -d 9 -p tcp -e 95 -c 1 -i 20 -a 1 -x {1.0 7.0 -1 ------- null}
- -t 1.252223375 -s 3 -d 9 -p tcp -e 95 -c 1 -i 21 -a 1 -x {1.0 7.0 12 ------- null}
h -t 1.252223375 -s 3 -d 9 -p tcp -e 95 -c 1 -i 21 -a 1 -x {1.0 7.0 -1 ------- null}
r -t 1.254108 -s 0 -d 3 -p tcp -e 95 -c 2 -i 24 -a 2 -x {2.0 8.0 1 ------- null}
h -t 1.254108 -s 3 -d 9 -p tcp -e 95 -c 2 -i 24 -a 2 -x {2.0 8.0 1 ------- null}
- -t 1.254114 -s 3 -d 9 -p tcp -e 95 -c 1 -i 22 -a 1 -x {1.0 7.0 13 ------- null}
h -t 1.254114 -s 3 -d 9 -p tcp -e 95 -c 1 -i 22 -a 1 -x {1.0 7.0 -1 ------- null}
r -t 1.254868 -s 0 -d 3 -p tcp -e 95 -c 2 -i 25 -a 2 -x {2.0 8.0 2 ------- null}
h -t 1.254868 -s 3 -d 9 -p tcp -e 95 -c 2 -i 25 -a 2 -x {2.0 8.0 2 ------- null}
- -t 1.256004625 -s 3 -d 9 -p tcp -e 95 -c 1 -i 23 -a 1 -x {1.0 7.0 14 ------- null}
h -t 1.256004625 -s 3 -d 9 -p tcp -e 95 -c 1 -i 23 -a 1 -x {1.0 7.0 -1 ------- null}
r -t 1.284477375 -s 9 -d 7 -p tcp -e 95 -c 1 -i 16 -a 1 -x {1.0 7.0 7 ------- null}
h -t 1.284477375 -s 7 -d 9 -p ack -e 40 -c 1 -i 26 -a 1 -x {7.0 1.0 7 ------- null}
r -t 1.286368 -s 9 -d 7 -p tcp -e 95 -c 1 -i 17 -a 1 -x {1.0 7.0 8 ------- null}
h -t 1.286368 -s 7 -d 9 -p ack -e 40 -c 1 -i 27 -a 1 -x {7.0 1.0 8 ------- null}
r -t 1.288258625 -s 9 -d 7 -p tcp -e 95 -c 1 -i 18 -a 1 -x {1.0 7.0 9 ------- null}
h -t 1.288258625 -s 7 -d 9 -p ack -e 40 -c 1 -i 28 -a 1 -x {7.0 1.0 9 ------- null}
r -t 1.29014925 -s 9 -d 7 -p tcp -e 95 -c 1 -i 19 -a 1 -x {1.0 7.0 10 ------- null}
h -t 1.29014925 -s 7 -d 9 -p ack -e 40 -c 1 -i 29 -a 1 -x {7.0 1.0 10 ------- null}
r -t 1.292039875 -s 9 -d 7 -p tcp -e 95 -c 1 -i 20 -a 1 -x {1.0 7.0 11 ------- null}
h -t 1.292039875 -s 7 -d 9 -p ack -e 40 -c 1 -i 30 -a 1 -x {7.0 1.0 11 ------- null}
r -t 1.2939305 -s 9 -d 7 -p tcp -e 95 -c 1 -i 21 -a 1 -x {1.0 7.0 12 ------- null}
h -t 1.2939305 -s 7 -d 9 -p ack -e 40 -c 1 -i 31 -a 1 -x {7.0 1.0 12 ------- null}
+ -t 1.294108 -s 3 -d 9 -p tcp -e 95 -c 2 -i 24 -a 2 -x {2.0 8.0 1 ------- null}
- -t 1.294108 -s 3 -d 9 -p tcp -e 95 -c 2 -i 24 -a 2 -x {2.0 8.0 1 ------- null}
h -t 1.294108 -s 3 -d 9 -p tcp -e 95 -c 2 -i 24 -a 2 -x {2.0 8.0 -1 ------- null}
+ -t 1.294868 -s 3 -d 9 -p tcp -e 95 -c 2 -i 25 -a 2 -x {2.0 8.0 2 ------- null}
r -t 1.295821125 -s 9 -d 7 -p tcp -e 95 -c 1 -i 22 -a 1 -x {1.0 7.0 13 ------- null}
h -t 1.295821125 -s 7 -d 9 -p ack -e 40 -c 1 -i 32 -a 1 -x {7.0 1.0 13 ------- null}
- -t 1.295998625 -s 3 -d 9 -p tcp -e 95 -c 2 -i 25 -a 2 -x {2.0 8.0 2 ------- null}
h -t 1.295998625 -s 3 -d 9 -p tcp -e 95 -c 2 -i 25 -a 2 -x {2.0 8.0 -1 ------- null}
r -t 1.29771175 -s 9 -d 7 -p tcp -e 95 -c 1 -i 23 -a 1 -x {1.0 7.0 14 ------- null}
h -t 1.29771175 -s 7 -d 9 -p ack -e 40 -c 1 -i 33 -a 1 -x {7.0 1.0 14 ------- null}
+ -t 1.324477375 -s 7 -d 9 -p ack -e 40 -c 1 -i 26 -a 1 -x {7.0 1.0 7 ------- null}
- -t 1.324477375 -s 7 -d 9 -p ack -e 40 -c 1 -i 26 -a 1 -x {7.0 1.0 7 ------- null}
h -t 1.324477375 -s 7 -d 9 -p ack -e 40 -c 1 -i 26 -a 1 -x {7.0 1.0 -1 ------- null}
+ -t 1.326368 -s 7 -d 9 -p ack -e 40 -c 1 -i 27 -a 1 -x {7.0 1.0 8 ------- null}
- -t 1.326368 -s 7 -d 9 -p ack -e 40 -c 1 -i 27 -a 1 -x {7.0 1.0 8 ------- null}
h -t 1.326368 -s 7 -d 9 -p ack -e 40 -c 1 -i 27 -a 1 -x {7.0 1.0 -1 ------- null}
+ -t 1.328258625 -s 7 -d 9 -p ack -e 40 -c 1 -i 28 -a 1 -x {7.0 1.0 9 ------- null}