+ 4.5 0 1 cbr 500 ------- 0 0.0 2.0 0 0
- 4.5 0 1 cbr 500 ------- 0 0.0 2.0 0 0
r 4.514 0 1 cbr 500 ------- 0 0.0 2.0 0 0
+ 4.514 1 2 cbr 500 ------- 0 0.0 2.0 0 0
- 4.514 1 2 cbr 500 ------- 0 0.0 2.0 0 0
r 4.531813 1 2 cbr 500 ------- 0 0.0 2.0 0 0
+ 4.55 0 1 cbr 500 ------- 0 0.0 2.0 1 1
- 4.55 0 1 cbr 500 ------- 0 0.0 2.0 1 1
r 4.564 0 1 cbr 500 ------- 0 0.0 2.0 1 1
+ 4.564 1 2 cbr 500 ------- 0 0.0 2.0 1 1
- 4.564 1 2 cbr 500 ------- 0 0.0 2.0 1 1
r 4.581813 1 2 cbr 500 ------- 0 0.0 2.0 1 1
+ 4.6 0 1 cbr 500 ------- 0 0.0 2.0 2 2
- 4.6 0 1 cbr 500 ------- 0 0.0 2.0 2 2
r 4.614 0 1 cbr 500 ------- 0 0.0 2.0 2 2
+ 4.614 1 2 cbr 500 ------- 0 0.0 2.0 2 2
- 4.614 1 2 cbr 500 ------- 0 0.0 2.0 2 2
r 4.631813 1 2 cbr 500 ------- 0 0.0 2.0 2 2
+ 4.65 0 1 cbr 500 ------- 0 0.0 2.0 3 3
- 4.65 0 1 cbr 500 ------- 0 0.0 2.0 3 3
r 4.664 0 1 cbr 500 ------- 0 0.0 2.0 3 3
+ 4.664 1 2 cbr 500 ------- 0 0.0 2.0 3 3
- 4.664 1 2 cbr 500 ------- 0 0.0 2.0 3 3
r 4.681812 1 2 cbr 500 ------- 0 0.0 2.0 3 3
+ 4.7 0 1 cbr 500 ------- 0 0.0 2.0 4 4
- 4.7 0 1 cbr 500 ------- 0 0.0 2.0 4 4
r 4.714 0 1 cbr 500 ------- 0 0.0 2.0 4 4
+ 4.714 1 2 cbr 500 ------- 0 0.0 2.0 4 4
- 4.714 1 2 cbr 500 ------- 0 0.0 2.0 4 4
r 4.731812 1 2 cbr 500 ------- 0 0.0 2.0 4 4
+ 4.75 0 1 cbr 500 ------- 0 0.0 2.0 5 5
- 4.75 0 1 cbr 500 ------- 0 0.0 2.0 5 5
r 4.764 0 1 cbr 500 ------- 0 0.0 2.0 5 5
+ 4.764 1 2 cbr 500 ------- 0 0.0 2.0 5 5
- 4.764 1 2 cbr 500 ------- 0 0.0 2.0 5 5
r 4.781812 1 2 cbr 500 ------- 0 0.0 2.0 5 5
+ 4.8 0 1 cbr 500 ------- 0 0.0 2.0 6 6
- 4.8 0 1 cbr 500 ------- 0 0.0 2.0 6 6
r 4.814 0 1 cbr 500 ------- 0 0.0 2.0 6 6
+ 4.814 1 2 cbr 500 ------- 0 0.0 2.0 6 6
- 4.814 1 2 cbr 500 ------- 0 0.0 2.0 6 6
r 4.831812 1 2 cbr 500 ------- 0 0.0 2.0 6 6
+ 4.85 0 1 cbr 500 ------- 0 0.0 2.0 7 7
- 4.85 0 1 cbr 500 ------- 0 0.0 2.0 7 7
r 4.864 0 1 cbr 500 ------- 0 0.0 2.0 7 7
+ 4.864 1 2 cbr 500 ------- 0 0.0 2.0 7 7
- 4.864 1 2 cbr 500 ------- 0 0.0 2.0 7 7
r 4.881812 1 2 cbr 500 ------- 0 0.0 2.0 7 7
+ 4.9 0 1 cbr 500 ------- 0 0.0 2.0 8 8
- 4.9 0 1 cbr 500 ------- 0 0.0 2.0 8 8
r 4.914 0 1 cbr 500 ------- 0 0.0 2.0 8 8
+ 4.914 1 2 cbr 500 ------- 0 0.0 2.0 8 8
- 4.914 1 2 cbr 500 ------- 0 0.0 2.0 8 8
r 4.931812 1 2 cbr 500 ------- 0 0.0 2.0 8 8
+ 4.95 0 1 cbr 500 ------- 0 0.0 2.0 9 9
- 4.95 0 1 cbr 500 ------- 0 0.0 2.0 9 9
r 4.964 0 1 cbr 500 ------- 0 0.0 2.0 9 9
+ 4.964 1 2 cbr 500 ------- 0 0.0 2.0 9 9
- 4.964 1 2 cbr 500 ------- 0 0.0 2.0 9 9
r 4.981812 1 2 cbr 500 ------- 0 0.0 2.0 9 9
+ 5 0 1 cbr 500 ------- 0 0.0 2.0 10 10
- 5 0 1 cbr 500 ------- 0 0.0 2.0 10 10
